Title: *** SPICE deck for cell osc11{sch} from library lab1
Date: Wed Feb 05 22:59:00  2020
Plotname: Transient Analysis
Flags: real
No. Variables: 60
No. Points: 508     
Command: version 1.06.00
Variables:
	0	time	time
	1	net@0	voltage
	2	ring_out_11	voltage
	3	gnd	voltage
	4	vdd	voltage
	5	net@11	voltage
	6	net@2	voltage
	7	net@3	voltage
	8	net@27	voltage
	9	net@15	voltage
	10	net@26	voltage
	11	net@17	voltage
	12	net@19	voltage
	13	net@22	voltage
	14	M:Xinv@10:Mpmos@1#drain	voltage
	15	M:Xinv@10:Mpmos@1#source	voltage
	16	M:Xinv@9:Mpmos@1#drain	voltage
	17	M:Xinv@9:Mpmos@1#source	voltage
	18	M:Xinv@8:Mpmos@1#drain	voltage
	19	M:Xinv@8:Mpmos@1#source	voltage
	20	M:Xinv@7:Mpmos@1#drain	voltage
	21	M:Xinv@7:Mpmos@1#source	voltage
	22	M:Xinv@6:Mpmos@1#drain	voltage
	23	M:Xinv@6:Mpmos@1#source	voltage
	24	M:Xinv@5:Mpmos@1#drain	voltage
	25	M:Xinv@5:Mpmos@1#source	voltage
	26	M:Xinv@4:Mpmos@1#drain	voltage
	27	M:Xinv@4:Mpmos@1#source	voltage
	28	M:Xinv@3:Mpmos@1#drain	voltage
	29	M:Xinv@3:Mpmos@1#source	voltage
	30	M:Xinv@2:Mpmos@1#drain	voltage
	31	M:Xinv@2:Mpmos@1#source	voltage
	32	M:Xinv@1:Mpmos@1#drain	voltage
	33	M:Xinv@1:Mpmos@1#source	voltage
	34	M:Xinv@0:Mpmos@1#drain	voltage
	35	M:Xinv@0:Mpmos@1#source	voltage
	36	M:Xinv@10:Mnmos@0#drain	voltage
	37	M:Xinv@10:Mnmos@0#source	voltage
	38	M:Xinv@9:Mnmos@0#drain	voltage
	39	M:Xinv@9:Mnmos@0#source	voltage
	40	M:Xinv@8:Mnmos@0#drain	voltage
	41	M:Xinv@8:Mnmos@0#source	voltage
	42	M:Xinv@7:Mnmos@0#drain	voltage
	43	M:Xinv@7:Mnmos@0#source	voltage
	44	M:Xinv@6:Mnmos@0#drain	voltage
	45	M:Xinv@6:Mnmos@0#source	voltage
	46	M:Xinv@5:Mnmos@0#drain	voltage
	47	M:Xinv@5:Mnmos@0#source	voltage
	48	M:Xinv@4:Mnmos@0#drain	voltage
	49	M:Xinv@4:Mnmos@0#source	voltage
	50	M:Xinv@3:Mnmos@0#drain	voltage
	51	M:Xinv@3:Mnmos@0#source	voltage
	52	M:Xinv@2:Mnmos@0#drain	voltage
	53	M:Xinv@2:Mnmos@0#source	voltage
	54	M:Xinv@1:Mnmos@0#drain	voltage
	55	M:Xinv@1:Mnmos@0#source	voltage
	56	M:Xinv@0:Mnmos@0#drain	voltage
	57	M:Xinv@0:Mnmos@0#source	voltage
	58	vgnd#branch	current
	59	vsupply#branch	current
Values:
0		0.000000000000000e+00
	1.521545674158781e+00
	1.521545674195181e+00
	0.000000000000000e+00
	3.300000000000000e+00
	1.521545674158784e+00
	1.521545674158521e+00
	1.521545674163250e+00
	1.521545674130806e+00
	1.521545674158915e+00
	1.521545674777071e+00
	1.521545674158910e+00
	1.521545674158949e+00
	1.521545674157910e+00
	3.299500730292527e+00
	1.522044944490327e+00
	3.299500730292529e+00
	1.522044943908437e+00
	3.299500730292528e+00
	1.522044943871166e+00
	3.299500730292529e+00
	1.522044943872205e+00
	3.299500730292529e+00
	1.522044943872166e+00
	3.299500730292897e+00
	1.522044943871803e+00
	3.299500730292530e+00
	1.522044943844060e+00
	3.299500730292528e+00
	1.522044943876506e+00
	3.299500730292529e+00
	1.522044943871777e+00
	3.299500730292528e+00
	1.522044943872040e+00
	3.299500730292550e+00
	1.522044943872015e+00
	1.520636840798129e+00
	9.088339699325312e-04
	1.520636840216240e+00
	9.088339699320594e-04
	1.520636840178970e+00
	9.088339699312396e-04
	1.520636840180009e+00
	9.088339699312516e-04
	1.520636840179971e+00
	9.088339699312544e-04
	1.520636840179274e+00
	9.088339706323949e-04
	1.520636840151863e+00
	9.088339699346636e-04
	1.520636840184311e+00
	9.088339699310417e-04
	1.520636840179581e+00
	9.088339699310852e-04
	1.520636840179845e+00
	9.088339699310959e-04
	1.520636840179800e+00
	9.088339699723818e-04
	1.705400231196955e-03
	-1.705400230944226e-03
1		1.000000000000000e-13
	1.521545674212064e+00
	1.521545674248778e+00
	0.000000000000000e+00
	3.300000000000000e+00
	1.521545674212379e+00
	1.521545674212194e+00
	1.521545674216907e+00
	1.521545674184267e+00
	1.521545674205399e+00
	1.521545674829532e+00
	1.521545674210760e+00
	1.521545674212173e+00
	1.521545674211473e+00
	3.299500730287373e+00
	1.522044944548623e+00
	3.299500730287375e+00
	1.522044943967838e+00
	3.299500730287369e+00
	1.522044943930528e+00
	3.299500730287343e+00
	1.522044943931213e+00
	3.299500730287239e+00
	1.522044943929741e+00
	3.299500730287723e+00
	1.522044943924274e+00
	3.299500730287379e+00
	1.522044943903331e+00
	3.299500730287378e+00
	1.522044943935968e+00
	3.299500730287377e+00
	1.522044943931253e+00
	3.299500730287371e+00
	1.522044943931434e+00
	3.299500730287398e+00
	1.522044943931113e+00
	1.520636840844890e+00
	9.088339756424707e-04
	1.520636840264095e+00
	9.088339756441619e-04
	1.520636840226786e+00
	9.088339756363364e-04
	1.520636840227473e+00
	9.088339756079224e-04
	1.520636840226012e+00
	9.088339754969207e-04
	1.520636840220264e+00
	9.088339763214169e-04
	1.520636840199588e+00
	9.088339756486948e-04
	1.520636840232225e+00
	9.088339756454297e-04
	1.520636840227510e+00
	9.088339756438546e-04
	1.520636840227692e+00
	9.088339756374464e-04
	1.520636840227354e+00
	9.088339756851678e-04
	1.705400244929614e-03
	-1.705400244927468e-03
2		2.000000000000000e-13
	1.521545674265271e+00
	1.521545674302284e+00
	0.000000000000000e+00
	3.300000000000000e+00
	1.521545674265893e+00
	1.521545674265780e+00
	1.521545674270474e+00
	1.521545674237629e+00
	1.521545674251962e+00
	1.521545674881915e+00
	1.521545674262617e+00
	1.521545674265349e+00
	1.521545674264964e+00
	3.299500730287169e+00
	1.522044944601096e+00
	3.299500730287172e+00
	1.522044944021434e+00
	3.299500730287166e+00
	1.522044943984109e+00
	3.299500730287138e+00
	1.522044943984479e+00
	3.299500730287028e+00
	1.522044943981688e+00
	3.299500730287517e+00
	1.522044943970927e+00
	3.299500730287176e+00
	1.522044943956783e+00
	3.299500730287174e+00
	1.522044943989624e+00
	3.299500730287173e+00
	1.522044943984928e+00
	3.299500730287166e+00
	1.522044943985038e+00
	3.299500730287194e+00
	1.522044943984409e+00
	1.520636840897046e+00
	9.088339759977045e-04
	1.520636840317374e+00
	9.088339760002245e-04
	1.520636840280050e+00
	9.088339759921443e-04
	1.520636840280423e+00
	9.088339759618960e-04
	1.520636840277645e+00
	9.088339758407999e-04
	1.520636840266604e+00
	9.088339766745849e-04
	1.520636840252723e+00
	9.088339760045900e-04
	1.520636840285564e+00
	9.088339760013871e-04
	1.520636840280868e+00
	9.088339759998015e-04
	1.520636840280978e+00
	9.088339759927678e-04
	1.520636840280332e+00
	9.088339760409145e-04
	1.705400245517989e-03
	-1.705400245516591e-03
3		4.000000000000000e-13
	1.521545674369746e+00
	1.521545674407368e+00
	0.000000000000000e+00
	3.300000000000000e+00
	1.521545674370983e+00
	1.521545674371005e+00
	1.521545674375662e+00
	1.521545674342427e+00
	1.521545674343439e+00
	1.521545674984795e+00
	1.521545674364612e+00
	1.521545674369850e+00
	1.521545674370035e+00
	3.299500730287177e+00
	1.522044944703932e+00
	3.299500730287180e+00
	1.522044944126475e+00
	3.299500730287174e+00
	1.522044944089137e+00
	3.299500730287147e+00
	1.522044944088939e+00
	3.299500730287032e+00
	1.522044944083646e+00
	3.299500730287525e+00
	1.522044944062356e+00
	3.299500730287183e+00
	1.522044944061537e+00
	3.299500730287181e+00
	1.522044944094769e+00
	3.299500730287180e+00
	1.522044944090110e+00
	3.299500730287173e+00
	1.522044944090084e+00
	3.299500730287202e+00
	1.522044944088840e+00
	1.520636840999828e+00
	9.088339761148381e-04
	1.520636840422361e+00
	9.088339761181317e-04
	1.520636840385025e+00
	9.088339761106305e-04
	1.520636840384831e+00
	9.088339760800645e-04
	1.520636840379555e+00
	9.088339759478314e-04
	1.520636840357978e+00
	9.088339767897020e-04
	1.520636840357424e+00
	9.088339761219092e-04
	1.520636840390655e+00
	9.088339761188142e-04
	1.520636840385996e+00
	9.088339761171942e-04
	1.520636840385972e+00
	9.088339761094733e-04
	1.520636840384710e+00
	9.088339761584578e-04
	1.705400245610151e-03
	-1.705400245599488e-03
4		8.000000000000000e-13
	1.521545674567412e+00
	1.521545674606285e+00
	0.000000000000000e+00
	3.300000000000000e+00
	1.521545674569901e+00
	1.521545674570159e+00
	1.521545674574734e+00
	1.521545674540745e+00
	1.521545674515714e+00
	1.521545675179393e+00
	1.521545674558365e+00
	1.521545674568022e+00
	1.521545674569030e+00
	3.299500730287246e+00
	1.522044944898439e+00
	3.299500730287251e+00
	1.522044944325302e+00
	3.299500730287246e+00
	1.522044944288043e+00
	3.299500730287220e+00
	1.522044944287026e+00
	3.299500730287087e+00
	1.522044944277316e+00
	3.299500730287590e+00
	1.522044944234543e+00
	3.299500730287253e+00
	1.522044944259764e+00
	3.299500730287251e+00
	1.522044944293750e+00
	3.299500730287249e+00
	1.522044944289173e+00
	3.299500730287242e+00
	1.522044944288912e+00
	3.299500730287271e+00
	1.522044944286415e+00
	1.520636841194267e+00
	9.088339762438051e-04
	1.520636840621119e+00
	9.088339762491193e-04
	1.520636840583862e+00
	9.088339762427294e-04
	1.520636840582850e+00
	9.088339762107142e-04
	1.520636840573168e+00
	9.088339760485417e-04
	1.520636840530099e+00
	9.088339769136984e-04
	1.520636840555582e+00
	9.088339762520191e-04
	1.520636840589567e+00
	9.088339762491171e-04
	1.520636840584991e+00
	9.088339762474760e-04
	1.520636840584731e+00
	9.088339762380625e-04
	1.520636840582217e+00
	9.088339762885277e-04
	1.705400245660271e-03
	-1.705400245653732e-03
5		1.600000000000000e-12
	1.521545674921503e+00
	1.521545674962950e+00
	0.000000000000000e+00
	3.300000000000000e+00
	1.521545674926629e+00
	1.521545674927226e+00
	1.521545674931594e+00
	1.521545674896121e+00
	1.521545674819934e+00
	1.521545675527570e+00
	1.521545674908362e+00
	1.521545674924619e+00
	1.521545674926184e+00
	3.299500730287319e+00
	1.522044945246461e+00
	3.299500730287327e+00
	1.522044944681812e+00
	3.299500730287325e+00
	1.522044944645046e+00
	3.299500730287304e+00
	1.522044944643478e+00
	3.299500730287134e+00
	1.522044944627176e+00
	3.299500730287659e+00
	1.522044944538609e+00
	3.299500730287327e+00
	1.522044944614986e+00
	3.299500730287326e+00
	1.522044944650455e+00
	3.299500730287324e+00
	1.522044944646087e+00
	3.299500730287315e+00
	1.522044944645486e+00
	3.299500730287346e+00
	1.522044944640353e+00
	1.520636841542135e+00
	9.088339765580440e-04
	1.520636840977475e+00
	9.088339765670086e-04
	1.520636840940710e+00
	9.088339765635767e-04
	1.520636840939150e+00
	9.088339765319453e-04
	1.520636840922895e+00
	9.088339763083030e-04
	1.520636840834014e+00
	9.088339772181882e-04
	1.520636840910648e+00
	9.088339765681099e-04
	1.520636840946118e+00
	9.088339765656655e-04
	1.520636840941749e+00
	9.088339765641038e-04
	1.520636840941152e+00
	9.088339765512379e-04
	1.520636840936000e+00
	9.088339766047352e-04
	1.705400245860127e-03
	-1.705400245853733e-03
6		3.200000000000000e-12
	1.521545675491363e+00
	1.521545675537843e+00
	0.000000000000000e+00
	3.300000000000000e+00
	1.521545675502322e+00
	1.521545675503009e+00
	1.521545675506815e+00
	1.521545675468627e+00
	1.521545675295839e+00
	1.521545676086898e+00
	1.521545675484545e+00
	1.521545675503728e+00
	1.521545675502847e+00
	3.299500730287483e+00
	1.522044945805531e+00
	3.299500730287494e+00
	1.522044945256448e+00
	3.299500730287499e+00
	1.522044945221455e+00
	3.299500730287493e+00
	1.522044945222344e+00
	3.299500730287251e+00
	1.522044945203136e+00
	3.299500730287815e+00
	1.522044945014257e+00
	3.299500730287493e+00
	1.522044945187234e+00
	3.299500730287491e+00
	1.522044945225419e+00
	3.299500730287492e+00
	1.522044945221613e+00
	3.299500730287478e+00
	1.522044945220925e+00
	3.299500730287511e+00
	1.522044945209956e+00
	1.520636842100985e+00
	9.088339769891365e-04
	1.520636841551890e+00
	9.088339770040319e-04
	1.520636841516896e+00
	9.088339770091139e-04
	1.520636841517793e+00
	9.088339769928322e-04
	1.520636841498678e+00
	9.088339766419730e-04
	1.520636841309448e+00
	9.088339776322282e-04
	1.520636841482677e+00
	9.088339770025664e-04
	1.520636841520861e+00
	9.088339770011340e-04
	1.520636841517056e+00
	9.088339770005677e-04
	1.520636841516372e+00
	9.088339769800936e-04
	1.520636841505383e+00
	9.088339770384425e-04
	1.705400246085420e-03
	-1.705400246078347e-03
7		6.400000000000000e-12
	1.521545676236312e+00
	1.521545676291374e+00
	0.000000000000000e+00
	3.300000000000000e+00
	1.521545676260933e+00
	1.521545676259127e+00
	1.521545676261698e+00
	1.521545676219036e+00
	1.521545675870644e+00
	1.521545676814949e+00
	1.521545676292156e+00
	1.521545676270550e+00
	1.521545676259081e+00
	3.299500730287658e+00
	1.522044946533250e+00
	3.299500730287670e+00
	1.522044946009646e+00
	3.299500730287682e+00
	1.522044945977354e+00
	3.299500730287740e+00
	1.522044945988844e+00
	3.299500730287335e+00
	1.522044946010476e+00
	3.299500730287976e+00
	1.522044945588737e+00
	3.299500730287670e+00
	1.522044945937311e+00
	3.299500730287670e+00
	1.522044945979971e+00
	3.299500730287674e+00
	1.522044945977400e+00
	3.299500730287650e+00
	1.522044945979208e+00
	3.299500730287686e+00
	1.522044945954573e+00
	1.520636842828391e+00
	9.088339776187098e-04
	1.520636842304773e+00
	9.088339776380086e-04
	1.520636842272475e+00
	9.088339776569621e-04
	1.520636842283952e+00
	9.088339777290468e-04
	1.520636842305779e+00
	9.088339770880621e-04
	1.520636841883627e+00
	9.088339782309934e-04
	1.520636842232439e+00
	9.088339776376016e-04
	1.520636842275098e+00
	9.088339776377246e-04
	1.520636842272526e+00
	9.088339776424264e-04
	1.520636842274345e+00
	9.088339776050062e-04
	1.520636842249686e+00
	9.088339776709877e-04
	1.705400246463740e-03
	-1.705400246459581e-03
8		1.280000000000000e-11
	1.521545676884863e+00
	1.521545676953846e+00
	0.000000000000000e+00
	3.300000000000000e+00
	1.521545676942098e+00
	1.521545676922617e+00
	1.521545676926535e+00
	1.521545676877857e+00
	1.521545676227220e+00
	1.521545677440219e+00
	1.521545677220896e+00
	1.521545676896662e+00
	1.521545676919678e+00
	3.299500730287842e+00
	1.522044947158221e+00
	3.299500730287853e+00
	1.522044946671822e+00
	3.299500730287811e+00
	1.522044946637642e+00
	3.299500730288144e+00
	1.522044946614618e+00
	3.299500730287365e+00
	1.522044946939029e+00
	3.299500730288137e+00
	1.522044945945024e+00
	3.299500730287857e+00
	1.522044946595835e+00
	3.299500730287855e+00
	1.522044946644510e+00
	3.299500730287874e+00
	1.522044946640592e+00
	3.299500730287830e+00
	1.522044946660082e+00
	3.299500730287873e+00
	1.522044946602828e+00
	1.520636843453108e+00
	9.088339781176460e-04
	1.520636842966695e+00
	9.088339781381629e-04
	1.520636842932528e+00
	9.088339780804047e-04
	1.520636842909352e+00
	9.088339785947278e-04
	1.520636843234207e+00
	9.088339772805279e-04
	1.520636842239677e+00
	9.088339786818732e-04
	1.520636842890706e+00
	9.088339781440891e-04
	1.520636842939382e+00
	9.088339781406421e-04
	1.520636842935454e+00
	9.088339781711109e-04
	1.520636842954970e+00
	9.088339780958183e-04
	1.520636842897686e+00
	9.088339781751216e-04
	1.705400246726585e-03
	-1.705400246735417e-03
9		2.280000000000000e-11
	1.521545677090199e+00
	1.521545677141865e+00
	0.000000000000000e+00
	3.300000000000000e+00
	1.521545677198970e+00
	1.521545677115905e+00
	1.521545677152436e+00
	1.521545677089640e+00
	1.521545676076368e+00
	1.521545677624149e+00
	1.521545678140442e+00
	1.521545676671470e+00
	1.521545677270475e+00
	3.299500730287877e+00
	1.522044947342055e+00
	3.299500730288028e+00
	1.522044946859743e+00
	3.299500730287476e+00
	1.522044946988410e+00
	3.299500730288644e+00
	1.522044946389150e+00
	3.299500730287227e+00
	1.522044947858626e+00
	3.299500730288152e+00
	1.522044945794078e+00
	3.299500730287905e+00
	1.522044946807522e+00
	3.299500730287873e+00
	1.522044946870321e+00
	3.299500730287938e+00
	1.522044946833776e+00
	3.299500730287867e+00
	1.522044946916868e+00
	3.299500730287884e+00
	1.522044946808073e+00
	1.520636843636844e+00
	9.088339783122781e-04
	1.520636843154454e+00
	9.088339785495859e-04
	1.520636843283396e+00
	9.088339776696071e-04
	1.520636842683479e+00
	9.088339796276758e-04
	1.520636844153857e+00
	9.088339771283803e-04
	1.520636842088650e+00
	9.088339788326567e-04
	1.520636843102290e+00
	9.088339783592459e-04
	1.520636843165104e+00
	9.088339783093583e-04
	1.520636843128522e+00
	9.088339784192393e-04
	1.520636843211662e+00
	9.088339782904811e-04
	1.520636843102846e+00
	9.088339783320082e-04
	1.705400246865592e-03
	-1.705400246854092e-03
10		3.280000000000000e-11
	1.521545677175103e+00
	1.521545676868212e+00
	0.000000000000000e+00
	3.300000000000000e+00
	1.521545677230079e+00
	1.521545677070301e+00
	1.521545677198049e+00
	1.521545677080598e+00
	1.521545675803957e+00
	1.521545677623071e+00
	1.521545679060655e+00
	1.521545675594704e+00
	1.521545677963491e+00
	3.299500730287881e+00
	1.522044947340971e+00
	3.299500730288607e+00
	1.522044946585974e+00
	3.299500730286727e+00
	1.522044947681668e+00
	3.299500730289205e+00
	1.522044945312099e+00
	3.299500730287114e+00
	1.522044948778944e+00
	3.299500730288162e+00
	1.522044945521662e+00
	3.299500730287954e+00
	1.522044946798467e+00
	3.299500730287856e+00
	1.522044946915941e+00
	3.299500730287961e+00
	1.522044946788151e+00
	3.299500730287964e+00
	1.522044946947969e+00
	3.299500730287649e+00
	1.522044946893001e+00
	1.520636843635774e+00
	9.088339782663970e-04
	1.520636842880386e+00
	9.088339794585288e-04
	1.520636843977139e+00
	9.088339763085422e-04
	1.520636841606046e+00
	9.088339806120737e-04
	1.520636845074296e+00
	9.088339768490098e-04
	1.520636841816249e+00
	9.088339787902994e-04
	1.520636843093227e+00
	9.088339783886179e-04
	1.520636843210756e+00
	9.088339782242420e-04
	1.520636843082897e+00
	9.088339784126389e-04
	1.520636843242734e+00
	9.088339783908085e-04
	1.520636843187911e+00
	9.088339779033285e-04
	1.705400246833085e-03
	-1.705400246823139e-03
11		4.280000000000000e-11
	1.521545677710604e+00
	1.521545675725157e+00
	0.000000000000000e+00
	3.300000000000000e+00
	1.521545677068648e+00
	1.521545677047985e+00
	1.521545677273735e+00
	1.521545677023115e+00
	1.521545675556012e+00
	1.521545677646922e+00
	1.521545680088256e+00
	1.521545673797355e+00
	1.521545679734610e+00
	3.299500730287819e+00
	1.522044947364833e+00
	3.299500730289882e+00
	1.522044945442538e+00
	3.299500730285545e+00
	1.522044949453276e+00
	3.299500730289771e+00
	1.522044943514416e+00
	3.299500730286978e+00
	1.522044949806645e+00
	3.299500730288162e+00
	1.522044945273717e+00
	3.299500730287987e+00
	1.522044946740968e+00
	3.299500730287845e+00
	1.522044946991649e+00
	3.299500730287783e+00
	1.522044946765845e+00
	3.299500730288409e+00
	1.522044946786470e+00
	3.299500730286714e+00
	1.522044947428699e+00
	1.520636843659651e+00
	9.088339782180138e-04
	1.520636841736157e+00
	9.088339817129446e-04
	1.520636845749513e+00
	9.088339742445109e-04
	1.520636839807920e+00
	9.088339817271635e-04
	1.520636846102082e+00
	9.088339766526616e-04
	1.520636841568286e+00
	9.088339788407743e-04
	1.520636843035683e+00
	9.088339785056034e-04
	1.520636843286460e+00
	9.088339782483324e-04
	1.520636843060655e+00
	9.088339781884024e-04
	1.520636843080981e+00
	9.088339791727734e-04
	1.520636843724110e+00
	9.088339764000295e-04
	1.705400246869969e-03
	-1.705400246860490e-03
12		5.279999999999999e-11
	1.521545679686039e+00
	1.521545672713150e+00
	0.000000000000000e+00
	3.300000000000000e+00
	1.521545676085132e+00
	1.521545677376918e+00
	1.521545677274943e+00
	1.521545676921551e+00
	1.521545675294025e+00
	1.521545677735437e+00
	1.521545681204792e+00
	1.521545671291325e+00
	1.521545683088755e+00
	3.299500730287772e+00
	1.522044947453373e+00
	3.299500730292173e+00
	1.522044942429688e+00
	3.299500730284019e+00
	1.522044952808152e+00
	3.299500730290405e+00
	1.522044941008007e+00
	3.299500730286861e+00
	1.522044950923271e+00
	3.299500730288241e+00
	1.522044945011710e+00
	3.299500730287967e+00
	1.522044946639376e+00
	3.299500730288179e+00
	1.522044946992833e+00
	3.299500730286965e+00
	1.522044947094913e+00
	3.299500730289994e+00
	1.522044945802605e+00
	3.299500730284506e+00
	1.522044949404766e+00
	1.520636843748246e+00
	9.088339780738952e-04
	1.520636838721858e+00
	9.088339857018606e-04
	1.520636849105472e+00
	9.088339714099804e-04
	1.520636837301059e+00
	9.088339828500783e-04
	1.520636847218822e+00
	9.088339763799018e-04
	1.520636841306255e+00
	9.088339789171089e-04
	1.520636842934106e+00
	9.088339784367194e-04
	1.520636843287503e+00
	9.088339787208992e-04
	1.520636843390179e+00
	9.088339767917580e-04
	1.520636842096244e+00
	9.088339817709159e-04
	1.520636845701519e+00
	9.088339725547528e-04
	1.705400246833146e-03
	-1.705400246827607e-03
13		6.279999999999999e-11
	1.521545684947682e+00
	1.521545666533910e+00
	0.000000000000000e+00
	3.300000000000000e+00
	1.521545672609541e+00
	1.521545679174868e+00
	1.521545676616304e+00
	1.521545676992019e+00
	1.521545674963439e+00
	1.521545677867861e+00
	1.521545682434929e+00
	1.521545668082666e+00
	1.521545688448976e+00
	3.299500730287873e+00
	1.522044947585827e+00
	3.299500730295619e+00
	1.522044936248991e+00
	3.299500730282093e+00
	1.522044958169362e+00
	3.299500730291064e+00
	1.522044937798937e+00
	3.299500730286660e+00
	1.522044952153516e+00
	3.299500730288295e+00
	1.522044944681086e+00
	3.299500730287336e+00
	1.522044946709903e+00
	3.299500730289670e+00
	1.522044946333934e+00
	3.299500730284205e+00
	1.522044948893487e+00
	3.299500730293894e+00
	1.522044942325925e+00
	3.299500730280184e+00
	1.522044954667887e+00
	1.520636843880650e+00
	9.088339782653500e-04
	1.520636832538840e+00
	9.088339919315953e-04
	1.520636854468026e+00
	9.088339679399977e-04
	1.520636834091475e+00
	9.088339841292175e-04
	1.520636848449184e+00
	9.088339760780685e-04
	1.520636840975567e+00
	9.088339790776599e-04
	1.520636843004924e+00
	9.088339774863593e-04
	1.520636842627780e+00
	9.088339812307394e-04
	1.520636845190294e+00
	9.088339722176298e-04
	1.520636838617227e+00
	9.088339884968015e-04
	1.520636850967328e+00
	9.088339650570700e-04
	1.705400246869947e-03
	-1.705400246864970e-03
14		7.280000000000000e-11
	1.521545696322174e+00
	1.521545655696379e+00
	0.000000000000000e+00
	3.300000000000000e+00
	1.521545663259970e+00
	1.521545685367761e+00
	1.521545673319260e+00
	1.521545678300297e+00
	1.521545674633659e+00
	1.521545677621115e+00
	1.521545683820110e+00
	1.521545664140606e+00
	1.521545696190812e+00
	3.299500730289076e+00
	1.522044947338942e+00
	3.299500730300468e+00
	1.522044925409232e+00
	3.299500730279814e+00
	1.522044965912438e+00
	3.299500730291836e+00
	1.522044933856409e+00
	3.299500730286536e+00
	1.522044953538823e+00
	3.299500730288007e+00
	1.522044944351280e+00
	3.299500730284611e+00
	1.522044948018677e+00
	3.299500730294560e+00
	1.522044943035771e+00
	3.299500730277228e+00
	1.522044955088295e+00
	3.299500730301969e+00
	1.522044932973724e+00
	3.299500730272974e+00
	1.522044966045178e+00
	1.520636843633177e+00
	9.088339801416116e-04
	1.520636821695787e+00
	9.088340006326916e-04
	1.520636862212761e+00
	9.088339636993903e-04
	1.520636830148398e+00
	9.088339854970276e-04
	1.520636849834627e+00
	9.088339757714938e-04
	1.520636840645896e+00
	9.088339785959405e-04
	1.520636844315197e+00
	9.088339729368119e-04
	1.520636839326865e+00
	9.088339893836822e-04
	1.520636851389251e+00
	9.088339602522451e-04
	1.520636829260051e+00
	9.088340024728168e-04
	1.520636862349327e+00
	9.088339522248369e-04
	1.705400246833189e-03
	-1.705400246825899e-03
15		8.280000000000000e-11
	1.521545717643742e+00
	1.521545638569336e+00
	0.000000000000000e+00
	3.300000000000000e+00
	1.521545642276217e+00
	1.521545702179815e+00
	1.521545662169627e+00
	1.521545684382234e+00
	1.521545675125862e+00
	1.521545675045823e+00
	1.521545685149481e+00
	1.521545659454138e+00
	1.521545706676055e+00
	3.299500730294075e+00
	1.522044944762705e+00
	3.299500730306824e+00
	1.522044908279067e+00
	3.299500730277138e+00
	1.522044976399199e+00
	3.299500730292433e+00
	1.522044929169434e+00
	3.299500730287151e+00
	1.522044954868255e+00
	3.299500730285704e+00
	1.522044944843787e+00
	3.299500730275841e+00
	1.522044954102639e+00
	3.299500730307165e+00
	1.522044931882718e+00
	3.299500730262170e+00
	1.522044971905087e+00
	3.299500730316484e+00
	1.522044911984665e+00
	3.299500730261912e+00
	1.522044987371430e+00
	1.520636841054191e+00
	9.088339884633514e-04
	1.520636804561171e+00
	9.088340122375492e-04
	1.520636872701450e+00
	9.088339588233763e-04
	1.520636825460892e+00
	9.088339867225210e-04
	1.520636851163791e+00
	9.088339767463842e-04
	1.520636841139570e+00
	9.088339749260678e-04
	1.520636850404121e+00
	9.088339582602655e-04
	1.520636828166359e+00
	9.088340109262619e-04
	1.520636868215242e+00
	9.088339342496399e-04
	1.520636808261711e+00
	9.088340280568318e-04
	1.520636883682929e+00
	9.088339324978382e-04
	1.705400246869957e-03
	-1.705400246862546e-03
16		9.280000000000001e-11
	1.521545753741002e+00
	1.521545613432406e+00
	0.000000000000000e+00
	3.300000000000000e+00
	1.521545600928928e+00
	1.521545741005760e+00
	1.521545631666284e+00
	1.521545704635269e+00
	1.521545680024109e+00
	1.521545663767152e+00
	1.521545684812439e+00
	1.521545654541508e+00
	1.521545720117197e+00
	3.299500730309961e+00
	1.522044933480338e+00
	3.299500730314777e+00
	1.522044883137984e+00
	3.299500730274634e+00
	1.522044989842087e+00
	3.299500730291523e+00
	1.522044924256450e+00
	3.299500730291502e+00
	1.522044954530626e+00
	3.299500730276481e+00
	1.522044949743832e+00
	3.299500730252892e+00
	1.522044974361838e+00
	3.299500730335256e+00
	1.522044901370768e+00
	3.299500730233557e+00
	1.522045010741026e+00
	3.299500730340346e+00
	1.522044870627885e+00
	3.299500730246154e+00
	1.522045023475846e+00
	1.520636829762804e+00
	9.088340151093492e-04
	1.520636779414462e+00
	9.088340267241357e-04
	1.520636886146335e+00
	9.088339540011235e-04
	1.520636820548176e+00
	9.088339854214336e-04
	1.520636850823926e+00
	9.088339837542369e-04
	1.520636846044699e+00
	9.088339595848247e-04
	1.520636870676838e+00
	9.088339191272572e-04
	1.520636797637353e+00
	9.088340593320169e-04
	1.520636907069220e+00
	9.088338841415225e-04
	1.520636766889355e+00
	9.088340703502832e-04
	1.520636919798081e+00
	9.088339040627242e-04
	1.705400246833150e-03
	-1.705400246825770e-03
17		1.028000000000000e-10
	1.521545810311210e+00
	1.521545578847437e+00
	0.000000000000000e+00
	3.300000000000000e+00
	1.521545527040245e+00
	1.521545820540711e+00
	1.521545559610956e+00
	1.521545760384456e+00
	1.521545700913232e+00
	1.521545626703610e+00
	1.521545676165255e+00
	1.521545652553024e+00
	1.521545735601224e+00
	3.299500730352017e+00
	1.522044896405587e+00
	3.299500730323294e+00
	1.522044848547860e+00
	3.299500730274932e+00
	1.522045005327667e+00
	3.299500730283641e+00
	1.522044922268869e+00
	3.299500730308552e+00
	1.522044945880072e+00
	3.299500730247463e+00
	1.522044970639748e+00
	3.299500730200424e+00
	1.522045030126773e+00
	3.299500730390973e+00
	1.522044829296647e+00
	3.299500730183841e+00
	1.522045090294813e+00
	3.299500730376711e+00
	1.522044796723684e+00
	3.299500730225049e+00
	1.522045080056298e+00
	1.520636792663350e+00
	9.088340867065797e-04
	1.520636744817939e+00
	9.088340426865999e-04
	1.520636901632503e+00
	9.088339537511866e-04
	1.520636818564594e+00
	9.088339727380245e-04
	1.520636842163961e+00
	9.088340121033029e-04
	1.520636866957128e+00
	9.088339108503028e-04
	1.520636926473467e+00
	9.088338288806731e-04
	1.520636725528474e+00
	9.088341564598452e-04
	1.520636986655011e+00
	9.088337964731533e-04
	1.520636692960873e+00
	9.088341354277353e-04
	1.520636976393161e+00
	9.088338658306973e-04
	1.705400246869629e-03
	-1.705400246865362e-03
18		1.128000000000000e-10
	1.521545893102715e+00
	1.521545535585822e+00
	0.000000000000000e+00
	3.300000000000000e+00
	1.521545404830582e+00
	1.521545968989967e+00
	1.521545407329432e+00
	1.521545894501811e+00
	1.521545769054666e+00
	1.521545524194767e+00
	1.521545637992524e+00
	1.521545665877924e+00
	1.521545747211570e+00
	3.299500730450176e+00
	1.522044793867768e+00
	3.299500730327360e+00
	1.522044805280880e+00
	3.299500730288105e+00
	1.522045016937290e+00
	3.299500730252342e+00
	1.522044935599858e+00
	3.299500730361856e+00
	1.522044907694823e+00
	3.299500730169981e+00
	1.522045038801710e+00
	3.299500730092725e+00
	1.522045164279455e+00
	3.299500730492256e+00
	1.522044676978219e+00
	3.299500730103732e+00
	1.522045238776580e+00
	3.299500730428531e+00
	1.522044674490367e+00
	3.299500730200020e+00
	1.522045162861456e+00
	1.520636690066480e+00
	9.088342552840867e-04
	1.520636701546532e+00
	9.088340516871465e-04
	1.520636913235792e+00
	9.088339746219249e-04
	1.520636831912809e+00
	9.088339207570374e-04
	1.520636803948338e+00
	9.088341017000237e-04
	1.520636935164515e+00
	9.088337790754558e-04
	1.520637060692795e+00
	9.088336417823830e-04
	1.520636573145566e+00
	9.088343343055783e-04
	1.520637135189431e+00
	9.088336540180530e-04
	1.520636570692300e+00
	9.088342287194054e-04
	1.520637059216415e+00
	9.088338196586131e-04
	1.705400246833347e-03
	-1.705400246826007e-03
19		1.228000000000000e-10
	1.521546004150234e+00
	1.521545493867239e+00
	0.000000000000000e+00
	3.300000000000000e+00
	1.521545216231699e+00
	1.521546225787774e+00
	1.521545112763387e+00
	1.521546185289592e+00
	1.521545958412734e+00
	1.521545273867553e+00
	1.521545512740105e+00
	1.521545733626632e+00
	1.521545731934692e+00
	3.299500730657407e+00
	1.522044543474106e+00
	3.299500730308336e+00
	1.522044763560604e+00
	3.299500730344489e+00
	1.522045001650122e+00
	3.299500730154236e+00
	1.522045003371500e+00
	3.299500730505243e+00
	1.522044782404624e+00
	3.299500729985993e+00
	1.522045228213355e+00
	3.299500729889489e+00
	1.522045455138964e+00
	3.299500730663234e+00
	1.522044382345589e+00
	3.299500729983223e+00
	1.522045495626629e+00
	3.299500730495147e+00
	1.522044485857942e+00
	3.299500730180101e+00
	1.522045273924859e+00
	1.520636439545405e+00
	9.088346143182906e-04
	1.520636659834092e+00
	9.088340228933110e-04
	1.520636897917910e+00
	9.088340679392687e-04
	1.520636899740335e+00
	9.088337558333799e-04
	1.520636678574210e+00
	9.088343453682454e-04
	1.520637124686462e+00
	9.088334635251549e-04
	1.520637351680526e+00
	9.088332861697220e-04
	1.520636278401963e+00
	9.088346368228607e-04
	1.520637392120201e+00
	9.088334382927523e-04
	1.520636382013021e+00
	9.088343502780312e-04
	1.520637170296615e+00
	9.088337804665457e-04
	1.705400246869530e-03
	-1.705400246862296e-03
20		1.328000000000000e-10
	1.521546128188202e+00
	1.521545495667158e+00
	0.000000000000000e+00
	3.300000000000000e+00
	1.521544947850311e+00
	1.521546640546749e+00
	1.521544583562366e+00
	1.521546764826435e+00
	1.521546426766465e+00