Title: *** SPICE deck for cell osc11{sch} from library lab1
Date: Wed Feb 05 23:31:39  2020
Plotname: Transient Analysis
Flags: real
No. Variables: 60
No. Points: 508     
Command: version 1.06.00
Variables:
	0	time	time
	1	net@0	voltage
	2	ring_out_11	voltage
	3	gnd	voltage
	4	vdd	voltage
	5	net@11	voltage
	6	net@2	voltage
	7	net@3	voltage
	8	net@27	voltage
	9	net@15	voltage
	10	net@26	voltage
	11	net@17	voltage
	12	net@19	voltage
	13	net@22	voltage
	14	M:Xinv@10:Mpmos@1#drain	voltage
	15	M:Xinv@10:Mpmos@1#source	voltage
	16	M:Xinv@9:Mpmos@1#drain	voltage
	17	M:Xinv@9:Mpmos@1#source	voltage
	18	M:Xinv@8:Mpmos@1#drain	voltage
	19	M:Xinv@8:Mpmos@1#source	voltage
	20	M:Xinv@7:Mpmos@1#drain	voltage
	21	M:Xinv@7:Mpmos@1#source	voltage
	22	M:Xinv@6:Mpmos@1#drain	voltage
	23	M:Xinv@6:Mpmos@1#source	voltage
	24	M:Xinv@5:Mpmos@1#drain	voltage
	25	M:Xinv@5:Mpmos@1#source	voltage
	26	M:Xinv@4:Mpmos@1#drain	voltage
	27	M:Xinv@4:Mpmos@1#source	voltage
	28	M:Xinv@3:Mpmos@1#drain	voltage
	29	M:Xinv@3:Mpmos@1#source	voltage
	30	M:Xinv@2:Mpmos@1#drain	voltage
	31	M:Xinv@2:Mpmos@1#source	voltage
	32	M:Xinv@1:Mpmos@1#drain	voltage
	33	M:Xinv@1:Mpmos@1#source	voltage
	34	M:Xinv@0:Mpmos@1#drain	voltage
	35	M:Xinv@0:Mpmos@1#source	voltage
	36	M:Xinv@10:Mnmos@0#drain	voltage
	37	M:Xinv@10:Mnmos@0#source	voltage
	38	M:Xinv@9:Mnmos@0#drain	voltage
	39	M:Xinv@9:Mnmos@0#source	voltage
	40	M:Xinv@8:Mnmos@0#drain	voltage
	41	M:Xinv@8:Mnmos@0#source	voltage
	42	M:Xinv@7:Mnmos@0#drain	voltage
	43	M:Xinv@7:Mnmos@0#source	voltage
	44	M:Xinv@6:Mnmos@0#drain	voltage
	45	M:Xinv@6:Mnmos@0#source	voltage
	46	M:Xinv@5:Mnmos@0#drain	voltage
	47	M:Xinv@5:Mnmos@0#source	voltage
	48	M:Xinv@4:Mnmos@0#drain	voltage
	49	M:Xinv@4:Mnmos@0#source	voltage
	50	M:Xinv@3:Mnmos@0#drain	voltage
	51	M:Xinv@3:Mnmos@0#source	voltage
	52	M:Xinv@2:Mnmos@0#drain	voltage
	53	M:Xinv@2:Mnmos@0#source	voltage
	54	M:Xinv@1:Mnmos@0#drain	voltage
	55	M:Xinv@1:Mnmos@0#source	voltage
	56	M:Xinv@0:Mnmos@0#drain	voltage
	57	M:Xinv@0:Mnmos@0#source	voltage
	58	vgnd#branch	current
	59	vsupply#branch	current
Values:
0		0.000000000000000e+00
	1.565034408214399e+00
	1.565034408181276e+00
	0.000000000000000e+00
	3.300000000000000e+00
	1.565034408214381e+00
	1.565034408214591e+00
	1.565034408210942e+00
	1.565034408253467e+00
	1.565034408214288e+00
	1.565034408063184e+00
	1.565034408214280e+00
	1.565034408214233e+00
	1.565034408217025e+00
	3.299591555715832e+00
	1.565442852348744e+00
	3.299591555715817e+00
	1.565442852466852e+00
	3.299591555715817e+00
	1.565442852502601e+00
	3.299591555715817e+00
	1.565442852499809e+00
	3.299591555715817e+00
	1.565442852499856e+00
	3.299591555715742e+00
	1.565442852499938e+00
	3.299591555715816e+00
	1.565442852539044e+00
	3.299591555715817e+00
	1.565442852496518e+00
	3.299591555715817e+00
	1.565442852500167e+00
	3.299591555715817e+00
	1.565442852499957e+00
	3.299591555715800e+00
	1.565442852499991e+00
	1.564300436752987e+00
	7.339713079387480e-04
	1.564300436871105e+00
	7.339713079130564e-04
	1.564300436906855e+00
	7.339713079121518e-04
	1.564300436904063e+00
	7.339713079120797e-04
	1.564300436904110e+00
	7.339713079120869e-04
	1.564300436904243e+00
	7.339713077860452e-04
	1.564300436943298e+00
	7.339713079108585e-04
	1.564300436900772e+00
	7.339713079122076e-04
	1.564300436904421e+00
	7.339713079121780e-04
	1.564300436904211e+00
	7.339713079121840e-04
	1.564300436904256e+00
	7.339713078845564e-04
	5.651579088221841e-03
	-5.651579088424064e-03
1		1.000000000000000e-13
	1.565034408216402e+00
	1.565034408183020e+00
	0.000000000000000e+00
	3.300000000000000e+00
	1.565034408216150e+00
	1.565034408216296e+00
	1.565034408212633e+00
	1.565034408255160e+00
	1.565034408217401e+00
	1.565034408064838e+00
	1.565034408216366e+00
	1.565034408216031e+00
	1.565034408218751e+00
	3.299591555715757e+00
	1.565442852350497e+00
	3.299591555715743e+00
	1.565442852468693e+00
	3.299591555715744e+00
	1.565442852504426e+00
	3.299591555715749e+00
	1.565442852501711e+00
	3.299591555715769e+00
	1.565442852502057e+00
	3.299591555715667e+00
	1.565442852503113e+00
	3.299591555715741e+00
	1.565442852540835e+00
	3.299591555715743e+00
	1.565442852498307e+00
	3.299591555715743e+00
	1.565442852501971e+00
	3.299591555715748e+00
	1.565442852501828e+00
	3.299591555715727e+00
	1.565442852502086e+00
	1.564300436754614e+00
	7.339713079858400e-04
	1.564300436872820e+00
	7.339713079607928e-04
	1.564300436908553e+00
	7.339713079613993e-04
	1.564300436905838e+00
	7.339713079672572e-04
	1.564300436906183e+00
	7.339713079884541e-04
	1.564300436907287e+00
	7.339713078323788e-04
	1.564300436944963e+00
	7.339713079578889e-04
	1.564300436902435e+00
	7.339713079595338e-04
	1.564300436906098e+00
	7.339713079608449e-04
	1.564300436905956e+00
	7.339713079656811e-04
	1.564300436906223e+00
	7.339713079326962e-04
	5.651579088923094e-03
	-5.651579088950160e-03
2		2.000000000000000e-13
	1.565034408218408e+00
	1.565034408184768e+00
	0.000000000000000e+00
	3.300000000000000e+00
	1.565034408217928e+00
	1.565034408218006e+00
	1.565034408214328e+00
	1.565034408256853e+00
	1.565034408220373e+00
	1.565034408066476e+00
	1.565034408218408e+00
	1.565034408217819e+00
	1.565034408220476e+00
	3.299591555715756e+00
	1.565442852352137e+00
	3.299591555715741e+00
	1.565442852470442e+00
	3.299591555715742e+00
	1.565442852506152e+00
	3.299591555715747e+00
	1.565442852503499e+00
	3.299591555715766e+00
	1.565442852504098e+00
	3.299591555715664e+00
	1.565442852506089e+00
	3.299591555715740e+00
	1.565442852542529e+00
	3.299591555715740e+00
	1.565442852500004e+00
	3.299591555715741e+00
	1.565442852503683e+00
	3.299591555715745e+00
	1.565442852503607e+00
	3.299591555715724e+00
	1.565442852504092e+00
	1.564300436756251e+00
	7.339713079891980e-04
	1.564300436874565e+00
	7.339713079642478e-04
	1.564300436910276e+00
	7.339713079647519e-04
	1.564300436907623e+00
	7.339713079703965e-04
	1.564300436908222e+00
	7.339713079913149e-04
	1.564300436910260e+00
	7.339713078354197e-04
	1.564300436946654e+00
	7.339713079613705e-04
	1.564300436904128e+00
	7.339713079630538e-04
	1.564300436907807e+00
	7.339713079645153e-04
	1.564300436907731e+00
	7.339713079696009e-04
	1.564300436908227e+00
	7.339713079362522e-04
	5.651579088941973e-03
	-5.651579088978167e-03
3		4.000000000000000e-13
	1.565034408222361e+00
	1.565034408188208e+00
	0.000000000000000e+00
	3.300000000000000e+00
	1.565034408221419e+00
	1.565034408221369e+00
	1.565034408217661e+00
	1.565034408260191e+00
	1.565034408226409e+00
	1.565034408069731e+00
	1.565034408222457e+00
	1.565034408221341e+00
	1.565034408223874e+00
	3.299591555715756e+00
	1.565442852355390e+00
	3.299591555715742e+00
	1.565442852473881e+00
	3.299591555715742e+00
	1.565442852509549e+00
	3.299591555715747e+00
	1.565442852507019e+00
	3.299591555715770e+00
	1.565442852508147e+00
	3.299591555715665e+00
	1.565442852512121e+00
	3.299591555715740e+00
	1.565442852545866e+00
	3.299591555715740e+00
	1.565442852503336e+00
	3.299591555715741e+00
	1.565442852507044e+00
	3.299591555715746e+00
	1.565442852507097e+00
	3.299591555715724e+00
	1.565442852508044e+00
	1.564300436759503e+00
	7.339713079913480e-04
	1.564300436878003e+00
	7.339713079663361e-04
	1.564300436913672e+00
	7.339713079669212e-04
	1.564300436911142e+00
	7.339713079733673e-04
	1.564300436912269e+00
	7.339713079983371e-04
	1.564300436916291e+00
	7.339713078380683e-04
	1.564300436949989e+00
	7.339713079632872e-04
	1.564300436907459e+00
	7.339713079650101e-04
	1.564300436911167e+00
	7.339713079664854e-04
	1.564300436911220e+00
	7.339713079721069e-04
	1.564300436912178e+00
	7.339713079383644e-04
	5.651579088956109e-03
	-5.651579088980997e-03
4		8.000000000000000e-13
	1.565034408229921e+00
	1.565034408194752e+00
	0.000000000000000e+00
	3.300000000000000e+00
	1.565034408228024e+00
	1.565034408227753e+00
	1.565034408224000e+00
	1.565034408266552e+00
	1.565034408238280e+00
	1.565034408075950e+00
	1.565034408230123e+00
	1.565034408227990e+00
	1.565034408230318e+00
	3.299591555715757e+00
	1.565442852361607e+00
	3.299591555715743e+00
	1.565442852480422e+00
	3.299591555715743e+00
	1.565442852515990e+00
	3.299591555715748e+00
	1.565442852513664e+00
	3.299591555715773e+00
	1.565442852515808e+00
	3.299591555715666e+00
	1.565442852523991e+00
	3.299591555715741e+00
	1.565442852552224e+00
	3.299591555715741e+00
	1.565442852509672e+00
	3.299591555715743e+00
	1.565442852513425e+00
	3.299591555715748e+00
	1.565442852513699e+00
	3.299591555715727e+00
	1.565442852515601e+00
	1.564300436765717e+00
	7.339713079944464e-04
	1.564300436884542e+00
	7.339713079692418e-04
	1.564300436920111e+00
	7.339713079695813e-04
	1.564300436917784e+00
	7.339713079761616e-04
	1.564300436919925e+00
	7.339713080048105e-04
	1.564300436928158e+00
	7.339713078410767e-04
	1.564300436956346e+00
	7.339713079664555e-04
	1.564300436913793e+00
	7.339713079680361e-04
	1.564300436917546e+00
	7.339713079694489e-04
	1.564300436917819e+00
	7.339713079760163e-04
	1.564300436919732e+00
	7.339713079415857e-04
	5.651579088961991e-03
	-5.651579088973458e-03
5		1.600000000000000e-12
	1.565034408243760e+00
	1.565034408206555e+00
	0.000000000000000e+00
	3.300000000000000e+00
	1.565034408239891e+00
	1.565034408239270e+00
	1.565034408235469e+00
	1.565034408278045e+00
	1.565034408260207e+00
	1.565034408087095e+00
	1.565034408243458e+00
	1.565034408239745e+00
	1.565034408241873e+00
	3.299591555715759e+00
	1.565442852372748e+00
	3.299591555715744e+00
	1.565442852492220e+00
	3.299591555715744e+00
	1.565442852527539e+00
	3.299591555715749e+00
	1.565442852525412e+00
	3.299591555715779e+00
	1.565442852529134e+00
	3.299591555715668e+00
	1.565442852545914e+00
	3.299591555715743e+00
	1.565442852563712e+00
	3.299591555715744e+00
	1.565442852521135e+00
	3.299591555715743e+00
	1.565442852524937e+00
	3.299591555715751e+00
	1.565442852525560e+00
	3.299591555715728e+00
	1.565442852529435e+00
	1.564300436776854e+00
	7.339713080005708e-04
	1.564300436896337e+00
	7.339713079751963e-04
	1.564300436931656e+00
	7.339713079750125e-04
	1.564300436929528e+00
	7.339713079813152e-04
	1.564300436933245e+00
	7.339713080179906e-04
	1.564300436950078e+00
	7.339713078472359e-04
	1.564300436967830e+00
	7.339713079726303e-04
	1.564300436925253e+00
	7.339713079742143e-04
	1.564300436929054e+00
	7.339713079756527e-04
	1.564300436929676e+00
	7.339713079840861e-04
	1.564300436933563e+00
	7.339713079478834e-04
	5.651579088979047e-03
	-5.651579089021272e-03
6		3.200000000000000e-12
	1.565034408267129e+00
	1.565034408225925e+00
	0.000000000000000e+00
	3.300000000000000e+00
	1.565034408258972e+00
	1.565034408257991e+00
	1.565034408254221e+00
	1.565034408296925e+00
	1.565034408299812e+00
	1.565034408105300e+00
	1.565034408263617e+00
	1.565034408258205e+00
	1.565034408260605e+00
	3.299591555715762e+00
	1.565442852390944e+00
	3.299591555715747e+00
	1.565442852511582e+00
	3.299591555715746e+00
	1.565442852546263e+00
	3.299591555715750e+00
	1.565442852543863e+00
	3.299591555715795e+00
	1.565442852549281e+00
	3.299591555715673e+00
	1.565442852585510e+00
	3.299591555715746e+00
	1.565442852582585e+00
	3.299591555715747e+00
	1.565442852539879e+00
	3.299591555715748e+00
	1.565442852543650e+00
	3.299591555715757e+00
	1.565442852544632e+00
	3.299591555715732e+00
	1.565442852552797e+00
	1.564300436795045e+00
	7.339713080103579e-04
	1.564300436915693e+00
	7.339713079844515e-04
	1.564300436950374e+00
	7.339713079829538e-04
	1.564300436947972e+00
	7.339713079884743e-04
	1.564300436953380e+00
	7.339713080464755e-04
	1.564300436989668e+00
	7.339713078574532e-04
	1.564300436986697e+00
	7.339713079820764e-04
	1.564300436943991e+00
	7.339713079833336e-04
	1.564300436947761e+00
	7.339713079844587e-04
	1.564300436948740e+00
	7.339713079971844e-04
	1.564300436956918e+00
	7.339713079581414e-04
	5.651579089011547e-03
	-5.651579089030224e-03
7		6.400000000000000e-12
	1.565034408301361e+00
	1.565034408252740e+00
	0.000000000000000e+00
	3.300000000000000e+00
	1.565034408283273e+00
	1.565034408283209e+00
	1.565034408279863e+00
	1.565034408322757e+00
	1.565034408365823e+00
	1.565034408129517e+00
	1.565034408282928e+00
	1.565034408281414e+00
	1.565034408286063e+00
	3.299591555715768e+00
	1.565442852415151e+00
	3.299591555715753e+00
	1.565442852538387e+00
	3.299591555715748e+00
	1.565442852571711e+00
	3.299591555715744e+00
	1.565442852567058e+00
	3.299591555715816e+00
	1.565442852568569e+00
	3.299591555715676e+00
	1.565442852651513e+00
	3.299591555715751e+00
	1.565442852608406e+00
	3.299591555715752e+00
	1.565442852565512e+00
	3.299591555715750e+00
	1.565442852568856e+00
	3.299591555715766e+00
	1.565442852568920e+00
	3.299591555715738e+00
	1.565442852587018e+00
	1.564300436819243e+00
	7.339713080241544e-04
	1.564300436942490e+00
	7.339713079983951e-04
	1.564300436975814e+00
	7.339713079938211e-04
	1.564300436971162e+00
	7.339713079887903e-04
	1.564300436972647e+00
	7.339713080906479e-04
	1.564300437055663e+00
	7.339713078710930e-04
	1.564300437012510e+00
	7.339713079961312e-04
	1.564300436969615e+00
	7.339713079968462e-04
	1.564300436972959e+00
	7.339713079956994e-04
	1.564300436973017e+00
	7.339713080177192e-04
	1.564300436991131e+00
	7.339713079733055e-04
	5.651579089054747e-03
	-5.651579089087212e-03
8		1.280000000000000e-11
	1.565034408340678e+00
	1.565034408279334e+00
	0.000000000000000e+00
	3.300000000000000e+00
	1.565034408298573e+00
	1.565034408308125e+00
	1.565034408304650e+00
	1.565034408347090e+00
	1.565034408455325e+00
	1.565034408148327e+00
	1.565034408262984e+00
	1.565034408306552e+00
	1.565034408312076e+00
	3.299591555715772e+00
	1.565442852433953e+00
	3.299591555715759e+00
	1.565442852564972e+00
	3.299591555715759e+00
	1.565442852597716e+00
	3.299591555715715e+00
	1.565442852592190e+00
	3.299591555715845e+00
	1.565442852548592e+00
	3.299591555715679e+00
	1.565442852741014e+00
	3.299591555715756e+00
	1.565442852632729e+00
	3.299591555715757e+00
	1.565442852590289e+00
	3.299591555715748e+00
	1.565442852593763e+00
	3.299591555715776e+00
	1.565442852584205e+00
	3.299591555715744e+00
	1.565442852626324e+00
	1.564300436838038e+00
	7.339713080362832e-04
	1.564300436969066e+00
	7.339713080134412e-04
	1.564300437001812e+00
	7.339713080115921e-04
	1.564300436996299e+00
	7.339713079520765e-04
	1.564300436952643e+00
	7.339713081487427e-04
	1.564300437145159e+00
	7.339713078804300e-04
	1.564300437036825e+00
	7.339713080090374e-04
	1.564300436994384e+00
	7.339713080106929e-04
	1.564300436997862e+00
	7.339713079980013e-04
	1.564300436988291e+00
	7.339713080413052e-04
	1.564300437030428e+00
	7.339713079881787e-04
	5.651579089077334e-03
	-5.651579089147294e-03
9		2.280000000000000e-11
	1.565034408368176e+00
	1.565034408291019e+00
	0.000000000000000e+00
	3.300000000000000e+00
	1.565034408280751e+00
	1.565034408329729e+00
	1.565034408312520e+00
	1.565034408356583e+00
	1.565034408560869e+00
	1.565034408148475e+00
	1.565034408145718e+00
	1.565034408371788e+00
	1.565034408314833e+00
	3.299591555715774e+00
	1.565442852434096e+00
	3.299591555715752e+00
	1.565442852576652e+00
	3.299591555715805e+00
	1.565442852600465e+00
	3.299591555715644e+00
	1.565442852657449e+00
	3.299591555715895e+00
	1.565442852431298e+00
	3.299591555715679e+00
	1.565442852846552e+00
	3.299591555715756e+00
	1.565442852642218e+00
	3.299591555715768e+00
	1.565442852598154e+00
	3.299591555715733e+00
	1.565442852615369e+00
	3.299591555715786e+00
	1.565442852566373e+00
	3.299591555715747e+00
	1.565442852653818e+00
	1.564300436838178e+00
	7.339713080413431e-04
	1.564300436980745e+00
	7.339713080082747e-04
	1.564300437004541e+00
	7.339713080810571e-04
	1.564300437061594e+00
	7.339713078423681e-04
	1.564300436835317e+00
	7.339713082337031e-04
	1.564300437250694e+00
	7.339713078825981e-04
	1.564300437046312e+00
	7.339713080119759e-04
	1.564300437002242e+00
	7.339713080297930e-04
	1.564300437019473e+00
	7.339713079782108e-04
	1.564300436970451e+00
	7.339713080593385e-04
	1.564300437057919e+00
	7.339713079955618e-04
	5.651579089108879e-03
	-5.651579089141308e-03
10		3.280000000000000e-11
	1.565034408380710e+00
	1.565034408307378e+00
	0.000000000000000e+00
	3.300000000000000e+00
	1.565034408244668e+00
	1.565034408364349e+00
	1.565034408299191e+00
	1.565034408361039e+00
	1.565034408666719e+00
	1.565034408141325e+00
	1.565034407960780e+00
	1.565034408531546e+00
	1.565034408249333e+00
	3.299591555715776e+00
	1.565442852426946e+00
	3.299591555715702e+00
	1.565442852593016e+00
	3.299591555715905e+00
	1.565442852534936e+00
	3.299591555715544e+00
	1.565442852817252e+00
	3.299591555715943e+00
	1.565442852246328e+00
	3.299591555715677e+00
	1.565442852952404e+00
	3.299591555715745e+00
	1.565442852646675e+00
	3.299591555715790e+00
	1.565442852584819e+00
	3.299591555715715e+00
	1.565442852649998e+00
	3.299591555715789e+00
	1.565442852530285e+00
	3.299591555715760e+00
	1.565442852666352e+00
	1.564300436831027e+00
	7.339713080455581e-04
	1.564300436997130e+00
	7.339713079340483e-04
	1.564300436938963e+00
	7.339713082357999e-04
	1.564300437221453e+00
	7.339713076810048e-04
	1.564300436650315e+00
	7.339713083131720e-04
	1.564300437356547e+00
	7.339713078799997e-04
	1.564300437050773e+00
	7.339713079962895e-04
	1.564300436988897e+00
	7.339713080627484e-04
	1.564300437054113e+00
	7.339713079477314e-04
	1.564300436934359e+00
	7.339713080663729e-04
	1.564300437070447e+00
	7.339713080150904e-04
	5.651579089113202e-03
	-5.651579089141063e-03
11		4.280000000000000e-11
	1.565034408368226e+00
	1.565034408394516e+00
	0.000000000000000e+00
	3.300000000000000e+00
	1.565034408207340e+00
	1.565034408422807e+00
	1.565034408256009e+00
	1.565034408379911e+00
	1.565034408767005e+00
	1.565034408127584e+00
	1.565034407718161e+00
	1.565034408825008e+00
	1.565034408044264e+00
	3.299591555715791e+00
	1.565442852413203e+00
	3.299591555715566e+00
	1.565442852680188e+00
	3.299591555716075e+00
	1.565442852329803e+00
	3.299591555715421e+00
	1.565442853110778e+00
	3.299591555715984e+00
	1.565442852003677e+00
	3.299591555715672e+00
	1.565442853052693e+00
	3.299591555715717e+00
	1.565442852665554e+00
	3.299591555715822e+00
	1.565442852541622e+00
	3.299591555715699e+00
	1.565442852708468e+00
	3.299591555715775e+00
	1.565442852492955e+00
	3.299591555715826e+00
	1.565442852653859e+00
	1.564300436817278e+00
	7.339713080659185e-04
	1.564300437084365e+00
	7.339713077290822e-04
	1.564300436733741e+00
	7.339713085035474e-04
	1.564300437515051e+00
	7.339713074799440e-04
	1.564300436407636e+00
	7.339713083863222e-04
	1.564300437456840e+00
	7.339713078706673e-04
	1.564300437069664e+00
	7.339713079534401e-04
	1.564300436945683e+00
	7.339713081150286e-04
	1.564300437112593e+00
	7.339713079201647e-04
	1.564300436897033e+00
	7.339713080461310e-04
	1.564300437057927e+00
	7.339713081111070e-04
	5.651579089114367e-03
	-5.651579089137594e-03
12		5.279999999999999e-11
	1.565034408260352e+00
	1.565034408668464e+00
	0.000000000000000e+00
	3.300000000000000e+00
	1.565034408199267e+00
	1.565034408498622e+00
	1.565034408169491e+00
	1.565034408437115e+00
	1.565034408870115e+00
	1.565034408093400e+00
	1.565034407428512e+00
	1.565034409277916e+00
	1.565034407609273e+00
	3.299591555715828e+00
	1.565442852379010e+00
	3.299591555715303e+00
	1.565442852954222e+00
	3.299591555716322e+00
	1.565442851894706e+00
	3.299591555715281e+00
	1.565442853563765e+00
	3.299591555716031e+00
	1.565442851713998e+00
	3.299591555715651e+00
	1.565442853155809e+00
	3.299591555715666e+00
	1.565442852722776e+00
	3.299591555715859e+00
	1.565442852455085e+00
	3.299591555715708e+00
	1.565442852784293e+00
	3.299591555715691e+00
	1.565442852484892e+00
	3.299591555716009e+00
	1.565442852545941e+00
	1.564300436783068e+00
	7.339713081229319e-04
	1.564300437358530e+00
	7.339713073195923e-04
	1.564300436298508e+00
	7.339713088987400e-04
	1.564300437968123e+00
	7.339713072473155e-04
	1.564300436117928e+00
	7.339713084627928e-04
	1.564300437559965e+00
	7.339713078396916e-04
	1.564300437126913e+00
	7.339713078732354e-04
	1.564300436859122e+00
	7.339713081767596e-04
	1.564300437188420e+00
	7.339713079272787e-04
	1.564300436889003e+00
	7.339713079247957e-04
	1.564300436949926e+00
	7.339713083886133e-04
	5.651579089115353e-03
	-5.651579089151640e-03
13		6.279999999999999e-11
	1.565034407894537e+00
	1.565034409301476e+00
	0.000000000000000e+00
	3.300000000000000e+00
	1.565034408316668e+00
	1.565034408551907e+00
	1.565034408037861e+00
	1.565034408562145e+00
	1.565034408989991e+00
	1.565034408005342e+00
	1.565034407092093e+00
	1.565034409906572e+00
	1.565034406846944e+00
	3.299591555715903e+00
	1.565442852290929e+00
	3.299591555714867e+00
	1.565442853587402e+00
	3.299591555716650e+00
	1.565442851132218e+00
	3.299591555715120e+00
	1.565442854192515e+00
	3.299591555716086e+00
	1.565442851377545e+00
	3.299591555715595e+00
	1.565442853275704e+00
	3.299591555715596e+00
	1.565442852847839e+00
	3.299591555715872e+00
	1.565442852323431e+00
	3.299591555715805e+00
	1.565442852837573e+00
	3.299591555715442e+00
	1.565442852602348e+00
	3.299591555716403e+00
	1.565442852180008e+00
	1.564300436694950e+00
	7.339713082410628e-04
	1.564300437991940e+00
	7.339713066312944e-04
	1.564300435535833e+00
	7.339713094306275e-04
	1.564300438596971e+00
	7.339713069814784e-04
	1.564300435781442e+00
	7.339713085543027e-04
	1.564300437679887e+00
	7.339713077553488e-04
	1.564300437252015e+00
	7.339713077600965e-04
	1.564300436727453e+00
	7.339713082047399e-04
	1.564300437241663e+00
	7.339713080682908e-04
	1.564300437006570e+00
	7.339713075488789e-04
	1.564300436583800e+00
	7.339713089970259e-04
	5.651579089106141e-03
	-5.651579089148557e-03
14		7.280000000000000e-11
	1.565034406985786e+00
	1.565034410519594e+00
	0.000000000000000e+00
	3.300000000000000e+00
	1.565034408791127e+00
	1.565034408451079e+00
	1.565034407904987e+00
	1.565034408775473e+00
	1.565034409178931e+00
	1.565034407814313e+00
	1.565034406691903e+00
	1.565034410728220e+00
	1.565034405658989e+00
	3.299591555716023e+00
	1.565442852099851e+00
	3.299591555714217e+00
	1.565442854805799e+00
	3.299591555717066e+00
	1.565442849944048e+00
	3.299591555714927e+00
	1.565442855014273e+00
	3.299591555716193e+00
	1.565442850977314e+00
	3.299591555715481e+00
	1.565442853464679e+00
	3.299591555715543e+00
	1.565442853061210e+00
	3.299591555715769e+00
	1.565442852190550e+00
	3.299591555716139e+00
	1.565442852736679e+00
	3.299591555714861e+00
	1.565442853076968e+00
	3.299591555717124e+00
	1.565442851271004e+00
	1.564300436503807e+00
	7.339713084305218e-04
	1.564300439210693e+00
	7.339713055907302e-04
	1.564300434347421e+00
	7.339713101105294e-04
	1.564300439418845e+00
	7.339713066643172e-04
	1.564300435381156e+00
	7.339713087195461e-04
	1.564300437868918e+00
	7.339713075766815e-04
	1.564300437465426e+00
	7.339713076655431e-04
	1.564300436594605e+00
	7.339713080629633e-04
	1.564300437140624e+00
	7.339713085664760e-04
	1.564300437481467e+00
	7.339713066610436e-04
	1.564300435674429e+00
	7.339713101235573e-04
	5.651579089108996e-03
	-5.651579089138292e-03
15		8.280000000000000e-11
	1.565034405100626e+00
	1.565034412597363e+00
	0.000000000000000e+00
	3.300000000000000e+00
	1.565034410072131e+00
	1.565034407864865e+00
	1.565034407943425e+00
	1.565034409040459e+00
	1.565034409530565e+00
	1.565034407472044e+00
	1.565034406164840e+00
	1.565034411779964e+00
	1.565034403942795e+00
	3.299591555716147e+00
	1.565442851757507e+00
	3.299591555713303e+00
	1.565442856883989e+00
	3.299591555717596e+00
	1.565442848227579e+00
	3.299591555714657e+00
	1.565442856066150e+00
	3.299591555716394e+00
	1.565442850450178e+00
	3.299591555715285e+00
	1.565442853816384e+00
	3.299591555715628e+00
	1.565442853326228e+00
	3.299591555715339e+00
	1.565442852229057e+00
	3.299591555716974e+00
	1.565442852150249e+00
	3.299591555713718e+00
	1.565442854358345e+00
	3.299591555718303e+00
	1.565442849385382e+00
	1.564300436161384e+00
	7.339713086401619e-04
	1.564300441289393e+00
	7.339713041219377e-04
	1.564300432630644e+00
	7.339713109726496e-04
	1.564300440470874e+00
	7.339713062302695e-04
	1.564300434853917e+00
	7.339713090354438e-04
	1.564300438220726e+00
	7.339713072695803e-04
	1.564300437730429e+00
	7.339713077710637e-04
	1.564300436633292e+00
	7.339713074275270e-04
	1.564300436553804e+00
	7.339713098382108e-04
	1.564300438763415e+00
	7.339713048851241e-04
	1.564300433788182e+00
	7.339713119899738e-04
	5.651579089116242e-03
	-5.651579089123995e-03
16		9.280000000000001e-11
	1.565034401638527e+00
	1.565034415859519e+00
	0.000000000000000e+00
	3.300000000000000e+00
	1.565034412918219e+00
	1.565034406102219e+00
	1.565034408619770e+00
	1.565034409143229e+00
	1.565034410131108e+00
	1.565034406987744e+00
	1.565034405382459e+00
	1.565034413156006e+00
	1.565034401568964e+00
	3.299591555716122e+00
	1.565442851273131e+00
	3.299591555712066e+00
	1.565442860146741e+00
	3.299591555718295e+00
	1.565442845853394e+00
	3.299591555714238e+00
	1.565442857442378e+00
	3.299591555716730e+00
	1.565442849667661e+00
	3.299591555715039e+00
	1.565442854417056e+00
	3.299591555716156e+00
	1.565442853428938e+00
	3.299591555714163e+00
	1.565442852905683e+00
	3.299591555718738e+00
	1.565442850387063e+00
	3.299591555711698e+00
	1.565442857205168e+00
	3.299591555720101e+00
	1.565442845922522e+00
	1.564300435676981e+00
	7.339713086374490e-04
	1.564300444552847e+00
	7.339713021201703e-04
	1.564300430256056e+00
	7.339713121066406e-04
	1.564300441847330e+00
	7.339713055633601e-04
	1.564300434071223e+00
	7.339713095644165e-04
	1.564300438821542e+00
	7.339713068664559e-04
	1.564300437832931e+00
	7.339713085397248e-04
	1.564300437310456e+00
	7.339713056464829e-04
	1.564300434789756e+00
	7.339713125616911e-04
	1.564300441611281e+00
	7.339713017138970e-04
	1.564300430324347e+00
	7.339713148539398e-04
	5.651579089107766e-03
	-5.651579089133854e-03
17		1.028000000000000e-10
	1.565034395809445e+00
	1.565034420704501e+00
	0.000000000000000e+00
	3.300000000000000e+00
	1.565034418492061e+00
	1.565034401901555e+00
	1.565034410974812e+00
	1.565034408441106e+00
	1.565034411019639e+00
	1.565034406605499e+00
	1.565034404173165e+00
	1.565034415048064e+00
	1.565034398331961e+00
	3.299591555715514e+00
	1.565442850890909e+00
	3.299591555710387e+00
	1.565442864992540e+00
	3.299591555719278e+00
	1.565442842615918e+00
	3.299591555713584e+00
	1.565442859334718e+00
	3.299591555717196e+00
	1.565442848458150e+00
	3.299591555714932e+00
	1.565442855305740e+00
	3.299591555717772e+00
	1.565442852726469e+00
	3.299591555711506e+00
	1.565442855261486e+00
	3.299591555722065e+00
	1.565442846185263e+00
	3.299591555708397e+00
	1.565442862780313e+00
	3.299591555722710e+00
	1.565442840092274e+00
	1.564300435294979e+00
	7.339713077734990e-04
	1.564300449399599e+00
	7.339712994081731e-04
	1.564300427018028e+00
	7.339713136882680e-04
	1.564300443740025e+00
	7.339713045228460e-04
	1.564300432861449e+00
	7.339713103171507e-04
	1.564300439710335e+00
	7.339713066481139e-04
	1.564300437129741e+00
	7.339713109687887e-04
	1.564300439667535e+00
	7.339713015674523e-04
	1.564300430586273e+00
	7.339713177504085e-04
	1.564300447188173e+00
	7.339712964929023e-04
	1.564300424492658e+00
	7.339713190360603e-04
	5.651579089109121e-03
	-5.651579089158810e-03
18		1.128000000000000e-10
	1.565034386587318e+00
	1.565034427668034e+00
	0.000000000000000e+00
	3.300000000000000e+00
	1.565034428464441e+00
	1.565034393169402e+00
	1.565034417038043e+00
	1.565034405401507e+00
	1.565034411958230e+00
	1.565034407185024e+00
	1.565034402398812e+00
	1.565034417754459e+00
	1.565034393881178e+00
	3.299591555713358e+00
	1.565442851470836e+00
	3.299591555708074e+00
	1.565442871957188e+00
	3.299591555720703e+00
	1.565442838164474e+00
	3.299591555712652e+00
	1.565442862041548e+00
	3.299591555717581e+00
	1.565442846683498e+00
	3.299591555715558e+00
	1.565442856244388e+00
	3.299591555721685e+00
	1.565442849685821e+00
	3.299591555706192e+00
	1.565442861326432e+00
	3.299591555727841e+00
	1.565442837450964e+00
	3.299591555703299e+00
	1.565442872754828e+00
	3.299591555726407e+00
	1.565442830868442e+00
	1.564300435875839e+00
	7.339713045592752e-04
	1.564300456365555e+00
	7.339712956766181e-04
	1.564300422565793e+00
	7.339713159724088e-04
	1.564300446447375e+00
	7.339713030244016e-04
	1.564300431086525e+00
	7.339713109904407e-04
	1.564300440648795e+00
	7.339713075007000e-04
	1.564300434087248e+00
	7.339713169436491e-04
	1.564300445735121e+00
	7.339712933229829e-04
	1.564300421848976e+00
	7.339713268305843e-04
	1.564300457165444e+00
	7.339712883771054e-04
	1.564300415266763e+00
	7.339713249792915e-04
	5.651579089113052e-03
	-5.651579089137776e-03
19		1.228000000000000e-10
	1.565034372613286e+00
	1.565034437531151e+00
	0.000000000000000e+00
	3.300000000000000e+00
	1.565034445152294e+00
	1.565034376666143e+00
	1.565034430403398e+00
	1.565034396847804e+00
	1.565034411845868e+00
	1.565034410935610e+00
	1.565034400258427e+00
	1.565034421593087e+00
	1.565034387668683e+00
	3.299591555707721e+00
	1.565442855222828e+00
	3.299591555704830e+00
	1.565442881821849e+00
	3.299591555722701e+00
	1.565442831951027e+00
	3.299591555711662e+00
	1.565442865880784e+00
	3.299591555717097e+00
	1.565442844542877e+00
	3.299591555718339e+00
	1.565442856131603e+00
	3.299591555729967e+00
	1.565442841129586e+00
	3.299591555696444e+00
	1.565442874695217e+00
	3.299591555737275e+00
	1.565442820943972e+00
	3.299591555695706e+00
	1.565442889445999e+00
	3.299591555731607e+00
	1.565442816891977e+00
	1.564300439630437e+00
	7.339712959990927e-04
	1.564300466232037e+00
	7.339712904562886e-04
	1.564300416351222e+00
	7.339713191905302e-04
	1.564300450287234e+00
	7.339713013668193e-04
	1.564300428945958e+00
	7.339713104167724e-04
	1.564300440534853e+00
	7.339713116018942e-04
	1.564300425526966e+00
	7.339713297280792e-04
	1.564300459108878e+00
	7.339712780826432e-04
	1.564300405336984e+00
	7.339713417567408e-04
	1.564300473860772e+00
	7.339712762435995e-04
	1.564300401287386e+00
	7.339713333453135e-04
	5.651579089120331e-03
	-5.651579089148770e-03
20		1.328000000000000e-10
	1.565034352022094e+00
	1.565034451435103e+00
	0.000000000000000e+00
	3.300000000000000e+00
	1.565034471729715e+00
	1.565034347610367e+00
	1.565034456992191e+00
	1.565034376819605e+00
	1.565034407561939e+00