Title: *** SPICE deck for cell osc5{sch} from library lab1
Date: Wed Feb 05 16:21:53  2020
Plotname: Transient Analysis
Flags: real
No. Variables: 30
No. Points: 508     
Command: version 1.06.00
Variables:
	0	time	time
	1	net@0	voltage
	2	ring_out	voltage
	3	gnd	voltage
	4	vdd	voltage
	5	net@2	voltage
	6	net@4	voltage
	7	net@6	voltage
	8	M:Xinv@4:Mpmos@1#drain	voltage
	9	M:Xinv@4:Mpmos@1#source	voltage
	10	M:Xinv@3:Mpmos@1#drain	voltage
	11	M:Xinv@3:Mpmos@1#source	voltage
	12	M:Xinv@2:Mpmos@1#drain	voltage
	13	M:Xinv@2:Mpmos@1#source	voltage
	14	M:Xinv@1:Mpmos@1#drain	voltage
	15	M:Xinv@1:Mpmos@1#source	voltage
	16	M:Xinv@0:Mpmos@1#drain	voltage
	17	M:Xinv@0:Mpmos@1#source	voltage
	18	M:Xinv@4:Mnmos@0#drain	voltage
	19	M:Xinv@4:Mnmos@0#source	voltage
	20	M:Xinv@3:Mnmos@0#drain	voltage
	21	M:Xinv@3:Mnmos@0#source	voltage
	22	M:Xinv@2:Mnmos@0#drain	voltage
	23	M:Xinv@2:Mnmos@0#source	voltage
	24	M:Xinv@1:Mnmos@0#drain	voltage
	25	M:Xinv@1:Mnmos@0#source	voltage
	26	M:Xinv@0:Mnmos@0#drain	voltage
	27	M:Xinv@0:Mnmos@0#source	voltage
	28	vgnd#branch	current
	29	vsupply#branch	current
Values:
0		0.000000000000000e+00
	1.521545674158849e+00
	1.521545674158774e+00
	0.000000000000000e+00
	3.300000000000000e+00
	1.521545674157243e+00
	1.521545674193050e+00
	1.521545674158923e+00
	3.299500730292529e+00
	1.522044943872030e+00
	3.299500730292549e+00
	1.522044943872159e+00
	3.299500730292528e+00
	1.522044943906306e+00
	3.299500730292529e+00
	1.522044943870499e+00
	3.299500730292529e+00
	1.522044943872105e+00
	1.520636840179834e+00
	9.088339699312567e-04
	1.520636840179944e+00
	9.088339699699726e-04
	1.520636840214110e+00
	9.088339699311883e-04
	1.520636840178303e+00
	9.088339699310893e-04
	1.520636840179909e+00
	9.088339699310911e-04
	7.751819232199430e-04
	-7.751819232062180e-04
1		1.000000000000000e-13
	1.521545674212522e+00
	1.521545674212378e+00
	0.000000000000000e+00
	3.300000000000000e+00
	1.521545674210925e+00
	1.521545674246681e+00
	1.521545674212236e+00
	3.299500730287371e+00
	1.522044943931434e+00
	3.299500730287397e+00
	1.522044943931285e+00
	3.299500730287376e+00
	1.522044943965743e+00
	3.299500730287378e+00
	1.522044943929985e+00
	3.299500730287376e+00
	1.522044943931581e+00
	1.520636840227691e+00
	9.088339756381755e-04
	1.520636840227527e+00
	9.088339756834889e-04
	1.520636840262000e+00
	9.088339756457614e-04
	1.520636840226242e+00
	9.088339756454871e-04
	1.520636840227838e+00
	9.088339756440503e-04
	7.751819295037072e-04
	-7.751819295062856e-04
2		2.000000000000000e-13
	1.521545674266113e+00
	1.521545674265900e+00
	0.000000000000000e+00
	3.300000000000000e+00
	1.521545674264522e+00
	1.521545674300226e+00
	1.521545674265470e+00
	3.299500730287167e+00
	1.522044943985045e+00
	3.299500730287193e+00
	1.522044943984609e+00
	3.299500730287174e+00
	1.522044944019377e+00
	3.299500730287174e+00
	1.522044943983671e+00
	3.299500730287173e+00
	1.522044943985261e+00
	1.520636840280985e+00
	9.088339759935884e-04
	1.520636840280534e+00
	9.088339760393604e-04
	1.520636840315317e+00
	9.088339760018110e-04
	1.520636840279611e+00
	9.088339760015435e-04
	1.520636840281201e+00
	9.088339759999960e-04
	7.751819297717204e-04
	-7.751819297713295e-04
3		4.000000000000000e-13
	1.521545674371353e+00
	1.521545674371005e+00
	0.000000000000000e+00
	3.300000000000000e+00
	1.521545674369775e+00
	1.521545674405373e+00
	1.521545674370000e+00
	3.299500730287174e+00
	1.522044944090106e+00
	3.299500730287201e+00
	1.522044944089095e+00
	3.299500730287182e+00
	1.522044944124480e+00
	3.299500730287182e+00
	1.522044944088881e+00
	3.299500730287181e+00
	1.522044944090458e+00
	1.520636840385994e+00
	9.088339761103298e-04
	1.520636840384967e+00
	9.088339761567280e-04
	1.520636840420367e+00
	9.088339761193328e-04
	1.520636840384767e+00
	9.088339761190915e-04
	1.520636840386344e+00
	9.088339761174024e-04
	7.751819298127290e-04
	-7.751819298130198e-04
4		8.000000000000000e-13
	1.521545674570534e+00
	1.521545674569942e+00
	0.000000000000000e+00
	3.300000000000000e+00
	1.521545674568971e+00
	1.521545674604363e+00
	1.521545674567762e+00
	3.299500730287243e+00
	1.522044944288953e+00
	3.299500730287271e+00
	1.522044944286766e+00
	3.299500730287251e+00
	1.522044944323379e+00
	3.299500730287251e+00
	1.522044944287986e+00
	3.299500730287250e+00
	1.522044944289549e+00
	1.520636840584772e+00
	9.088339762388892e-04
	1.520636840582569e+00
	9.088339762865766e-04
	1.520636840619197e+00
	9.088339762494644e-04
	1.520636840583803e+00
	9.088339762493091e-04
	1.520636840585366e+00
	9.088339762475778e-04
	7.751819298366353e-04
	-7.751819298370783e-04
5		1.600000000000000e-12
	1.521545674927627e+00
	1.521545674926672e+00
	0.000000000000000e+00
	3.300000000000000e+00
	1.521545674926041e+00
	1.521545674961024e+00
	1.521545674921996e+00
	3.299500730287316e+00
	1.522044944645529e+00
	3.299500730287344e+00
	1.522044944640846e+00
	3.299500730287326e+00
	1.522044944679886e+00
	3.299500730287327e+00
	1.522044944644901e+00
	3.299500730287324e+00
	1.522044944646487e+00
	1.520636840941195e+00
	9.088339765521105e-04
	1.520636840936494e+00
	9.088339766023524e-04
	1.520636840975549e+00
	9.088339765658038e-04
	1.520636840940564e+00
	9.088339765658639e-04
	1.520636840942150e+00
	9.088339765641407e-04
	7.751819299288506e-04
	-7.751819299291022e-04
6		3.200000000000000e-12
	1.521545675503441e+00
	1.521545675502334e+00
	0.000000000000000e+00
	3.300000000000000e+00
	1.521545675501616e+00
	1.521545675535776e+00
	1.521545675492112e+00
	3.299500730287479e+00
	1.522044945220936e+00
	3.299500730287510e+00
	1.522044945210704e+00
	3.299500730287491e+00
	1.522044945254381e+00
	3.299500730287493e+00
	1.522044945220219e+00
	3.299500730287492e+00
	1.522044945222045e+00
	1.520636841516383e+00
	9.088339769812927e-04
	1.520636841506132e+00
	9.088339770359954e-04
	1.520636841549824e+00
	9.088339770006681e-04
	1.520636841515661e+00
	9.088339770013807e-04
	1.520636841517487e+00
	9.088339770005550e-04
	7.751819300327029e-04
	-7.751819300327746e-04
7		6.400000000000000e-12
	1.521545676259604e+00
	1.521545676260753e+00
	0.000000000000000e+00
	3.300000000000000e+00
	1.521545676257000e+00
	1.521545676289747e+00
	1.521545676237658e+00
	3.299500730287651e+00
	1.522044945979028e+00
	3.299500730287686e+00
	1.522044945955920e+00
	3.299500730287669e+00
	1.522044946008020e+00
	3.299500730287670e+00
	1.522044945975272e+00
	3.299500730287674e+00
	1.522044945977877e+00
	1.520636842274164e+00
	9.088339776069439e-04
	1.520636842251034e+00
	9.088339776699211e-04
	1.520636842303148e+00
	9.088339776363117e-04
	1.520636842270399e+00
	9.088339776380376e-04
	1.520636842273003e+00
	9.088339776420453e-04
	7.751819302080522e-04
	-7.751819302080317e-04
8		1.280000000000000e-11
	1.521545676923338e+00
	1.521545676941035e+00
	0.000000000000000e+00
	3.300000000000000e+00
	1.521545676922435e+00
	1.521545676953395e+00
	1.521545676886875e+00
	3.299500730287831e+00
	1.522044946659019e+00
	3.299500730287874e+00
	1.522044946604840e+00
	3.299500730287857e+00
	1.522044946671372e+00
	3.299500730287856e+00
	1.522044946640410e+00
	3.299500730287874e+00
	1.522044946641312e+00
	1.520636842953906e+00
	9.088339780980520e-04
	1.520636842899699e+00
	9.088339781747710e-04
	1.520636842966243e+00
	9.088339781436251e-04
	1.520636842935281e+00
	9.088339781413706e-04
	1.520636842936175e+00
	9.088339781695779e-04
	7.751819303310005e-04
	-7.751819303305652e-04
9		2.280000000000000e-11
	1.521545677117851e+00
	1.521545677197728e+00
	0.000000000000000e+00
	3.300000000000000e+00
	1.521545677148190e+00
	1.521545677168372e+00
	1.521545677085873e+00
	3.299500730287861e+00
	1.522044946915626e+00
	3.299500730287909e+00
	1.522044946803745e+00
	3.299500730287904e+00
	1.522044946886254e+00
	3.299500730287874e+00
	1.522044946866075e+00
	3.299500730287938e+00
	1.522044946835721e+00
	1.520636843210422e+00
	9.088339782828915e-04
	1.520636843098506e+00
	9.088339783728895e-04
	1.520636843181022e+00
	9.088339783584578e-04
	1.520636843160857e+00
	9.088339783117094e-04
	1.520636843130468e+00
	9.088339784182270e-04
	7.751819303935870e-04
	-7.751819303946126e-04
10		3.280000000000000e-11
	1.521545677067281e+00
	1.521545677253899e+00
	0.000000000000000e+00
	3.300000000000000e+00
	1.521545677193286e+00
	1.521545677159960e+00
	1.521545677083575e+00
	3.299500730287878e+00
	1.522044946971796e+00
	3.299500730287914e+00
	1.522044946801443e+00
	3.299500730287953e+00
	1.522044946877830e+00
	3.299500730287853e+00
	1.522044946911177e+00
	3.299500730287986e+00
	1.522044946785131e+00
	1.520636843266604e+00
	9.088339782549699e-04
	1.520636843096219e+00
	9.088339783275461e-04
	1.520636843172590e+00
	9.088339783874552e-04
	1.520636843205994e+00
	9.088339782181462e-04
	1.520636843079865e+00
	9.088339784495234e-04
	7.751819303785378e-04
	-7.751819303781626e-04
11		4.280000000000000e-11
	1.521545676974251e+00
	1.521545677298196e+00
	0.000000000000000e+00
	3.300000000000000e+00
	1.521545677288564e+00
	1.521545677097897e+00
	1.521545677101004e+00
	3.299500730287880e+00
	1.522044947016097e+00
	3.299500730287848e+00
	1.522044946818885e+00
	3.299500730288006e+00
	1.522044946815749e+00
	3.299500730287776e+00
	1.522044947006484e+00
	3.299500730287990e+00
	1.522044946692086e+00
	1.520636843310884e+00
	9.088339783135069e-04
	1.520636843113679e+00
	9.088339782715915e-04
	1.520636843110455e+00
	9.088339785345231e-04
	1.520636843301329e+00
	9.088339781387836e-04
	1.520636842986791e+00
	9.088339785195336e-04
	7.751819303954690e-04
	-7.751819303953845e-04
12		5.279999999999999e-11
	1.521545676863968e+00
	1.521545677301025e+00
	0.000000000000000e+00
	3.300000000000000e+00
	1.521545677460854e+00
	1.521545676937523e+00
	1.521545677196887e+00
	3.299500730287977e+00
	1.522044947018908e+00
	3.299500730287746e+00
	1.522044946914799e+00
	3.299500730288137e+00
	1.522044946655327e+00
	3.299500730287731e+00
	1.522044947178807e+00
	3.299500730287991e+00
	1.522044946581788e+00
	1.520636843313664e+00
	9.088339784184145e-04
	1.520636843209675e+00
	9.088339780408579e-04
	1.520636842949970e+00
	9.088339787108348e-04
	1.520636843473711e+00
	9.088339779948165e-04
	1.520636842876505e+00
	9.088339784750509e-04
	7.751819303787505e-04
	-7.751819303797084e-04
13		6.279999999999999e-11
	1.521545676798472e+00
	1.521545677173176e+00
	0.000000000000000e+00
	3.300000000000000e+00
	1.521545677699469e+00
	1.521545676624173e+00
	1.521545677464619e+00
	3.299500730288162e+00
	1.522044946891008e+00
	3.299500730287514e+00
	1.522044947182611e+00
	3.299500730288264e+00
	1.522044946341908e+00
	3.299500730287700e+00
	1.522044947417462e+00
	3.299500730287860e+00
	1.522044946516309e+00
	1.520636843185633e+00
	9.088339787900109e-04
	1.520636843477612e+00
	9.088339776906295e-04
	1.520636842636438e+00
	9.088339790024972e-04
	1.520636843712379e+00
	9.088339779798164e-04
	1.520636842811074e+00
	9.088339783143913e-04
	7.751819303953216e-04
	-7.751819303954279e-04
14		7.280000000000000e-11
	1.521545676933369e+00
	1.521545676744909e+00
	0.000000000000000e+00
	3.300000000000000e+00
	1.521545677915626e+00
	1.521545676140297e+00
	1.521545678025856e+00
	3.299500730288572e+00
	1.522044946462606e+00
	3.299500730287226e+00
	1.522044947743982e+00
	3.299500730288378e+00
	1.522044945857943e+00
	3.299500730287864e+00
	1.522044947633618e+00
	3.299500730287543e+00
	1.522044946651283e+00
	1.520636842756996e+00
	9.088339794499235e-04
	1.520636844039203e+00
	9.088339771107765e-04
	1.520636842152396e+00
	9.088339791747634e-04
	1.520636843928481e+00
	9.088339781805548e-04
	1.520636842946252e+00
	9.088339777242289e-04
	7.751819303788234e-04
	-7.751819303794537e-04
15		8.280000000000000e-11
	1.521545677578865e+00
	1.521545675765412e+00
	0.000000000000000e+00
	3.300000000000000e+00
	1.521545677852309e+00
	1.521545675593336e+00
	1.521545678970644e+00
	3.299500730289172e+00
	1.522044945482859e+00
	3.299500730286915e+00
	1.522044948688961e+00
	3.299500730288218e+00
	1.522044945310934e+00
	3.299500730288368e+00
	1.522044947570198e+00
	3.299500730286825e+00
	1.522044947297002e+00
	1.520636841776829e+00
	9.088339805808477e-04
	1.520636844984399e+00
	9.088339765760069e-04
	1.520636841605417e+00
	9.088339790053864e-04
	1.520636843864756e+00
	9.088339790835625e-04
	1.520636843592391e+00
	9.088339765321678e-04
	7.751819303954895e-04
	-7.751819303957534e-04
16		9.280000000000001e-11
	1.521545679233991e+00
	1.521545673980595e+00
	0.000000000000000e+00
	3.300000000000000e+00
	1.521545676955708e+00
	1.521545675384766e+00
	1.521545680204694e+00
	3.299500730289911e+00
	1.522044943697653e+00
	3.299500730286966e+00
	1.522044949923176e+00
	3.299500730287460e+00
	1.522044945102478e+00
	3.299500730289605e+00
	1.522044946673242e+00
	3.299500730285642e+00
	1.522044948952582e+00
	1.520636839991111e+00
	9.088339818924971e-04
	1.520636846218694e+00
	9.088339765100581e-04
	1.520636841397383e+00
	9.088339777021037e-04
	1.520636842967078e+00
	9.088339811548303e-04
	1.520636845248759e+00
	9.088339743801572e-04
	7.751819303785613e-04
	-7.751819303778840e-04
17		1.028000000000000e-10
	1.521545682502993e+00
	1.521545671379946e+00
	0.000000000000000e+00
	3.300000000000000e+00
	1.521545674263864e+00
	1.521545676471167e+00
	1.521545681141606e+00
	3.299500730290235e+00
	1.522044941096576e+00
	3.299500730288003e+00
	1.522044950860027e+00
	3.299500730285398e+00
	1.522044946189414e+00
	3.299500730291842e+00
	1.522044943980603e+00
	3.299500730284021e+00
	1.522044952222344e+00
	1.520636837389653e+00
	9.088339826858299e-04
	1.520636847155019e+00
	9.088339782216708e-04
	1.520636842485508e+00
	9.088339742421882e-04
	1.520636840272999e+00
	9.088339851416965e-04
	1.520636848519623e+00
	9.088339714853715e-04
	7.751819303953714e-04
	-7.751819303935182e-04
18		1.128000000000000e-10
	1.521545687722077e+00
	1.521545668741118e+00
	0.000000000000000e+00
	3.300000000000000e+00
	1.521545668457519e+00
	1.521545680649476e+00
	1.521545680189744e+00
	3.299500730289024e+00
	1.522044938457602e+00
	3.299500730291314e+00
	1.522044949907415e+00
	3.299500730281311e+00
	1.522044950369071e+00
	3.299500730295204e+00
	1.522044938172815e+00
	3.299500730282727e+00
	1.522044957442405e+00
	1.520636834751178e+00
	9.088339808164444e-04
	1.520636846200540e+00
	9.088339837552417e-04
	1.520636846667728e+00
	9.088339670613461e-04
	1.520636834462973e+00
	9.088339911311049e-04
	1.520636853740784e+00
	9.088339688762452e-04
	7.751819303787174e-04
	-7.751819303784947e-04
19		1.228000000000000e-10
	1.521545694032036e+00
	1.521545668606651e+00
	0.000000000000000e+00
	3.300000000000000e+00
	1.521545658383981e+00
	1.521545690640735e+00
	1.521545674096425e+00
	3.299500730283947e+00
	1.522044938324059e+00
	3.299500730298542e+00
	1.522044943811895e+00
	3.299500730274634e+00
	1.522044960362976e+00
	3.299500730298725e+00
	1.522044928097205e+00
	3.299500730283652e+00
	1.522044963753081e+00
	1.520636834620397e+00
	9.088339724270173e-04
	1.520636840100595e+00
	9.088339963120738e-04
	1.520636856665991e+00
	9.088339552304704e-04
	1.520636824384696e+00
	9.088339978175264e-04
	1.520636860051376e+00
	9.088339699894730e-04
	7.751819303953149e-04
	-7.751819303959354e-04
20		1.328000000000000e-10
	1.521545697576111e+00
	1.521545676680908e+00
	0.000000000000000e+00
	3.300000000000000e+00
	1.521545644577591e+00
	1.521545709436156e+00
	1.521545657489405e+00
	3.299500730271582e+00
	1.522044946401752e+00
	3.299500730311327e+00
	1.522044927200161e+00
	3.299500730266372e+00
	1.522044979162580e+00
	3.299500730299367e+00
	1.522044914288751e+00
	3.299500730290936e+00
	1.522044967296302e+00
	1.520636842705480e+00
	9.088339511603724e-04
	1.520636823480680e+00
	9.088340188196117e-04
	1.520636875471483e+00
	9.088339399788717e-04
	1.520636810574935e+00
	9.088339998889915e-04
	1.520636863590862e+00
	9.088339817932984e-04
	7.751819303788701e-04
	-7.751819303780872e-04
21		1.428000000000000e-10
	1.521545688671140e+00
	1.521545703188411e+00
	0.000000000000000e+00
	3.300000000000000e+00
	1.521545632478535e+00
	1.521545737916127e+00
	1.521545623505876e+00
	3.299500730247891e+00
	1.522044972917388e+00
	3.299500730329187e+00
	1.522044893208529e+00
	3.299500730261105e+00
	1.522045007647541e+00
	3.299500730289968e+00
	1.522044902189736e+00
	3.299500730311349e+00
	1.522044958386285e+00
	1.520636869235993e+00
	9.088339097346485e-04
	1.520636789476809e+00
	9.088340512161615e-04
	1.520636903961330e+00
	9.088339290830767e-04
	1.520636798480215e+00
	9.088339852180524e-04
	1.520636854668971e+00
	9.088340165244650e-04
	7.751819303952682e-04
	-7.751819303952388e-04
22		1.528000000000000e-10
	1.521545648484430e+00
	1.521545762756242e+00
	0.000000000000000e+00
	3.300000000000000e+00
	1.521545637932786e+00
	1.521545769276341e+00
	1.521545567310011e+00
	3.299500730211386e+00
	1.522045032500390e+00
	3.299500730345753e+00
	1.522044837001672e+00
	3.299500730270865e+00
	1.522045039010358e+00
	3.299500730257670e+00
	1.522044907650756e+00
	3.299500730353908e+00
	1.522044918186008e+00
	1.520636928843292e+00
	9.088338443293605e-04
	1.520636733256897e+00
	9.088340830503540e-04
	1.520636935321014e+00
	9.088339428823840e-04
	1.520636803959399e+00
	9.088339309571632e-04
	1.520636814442476e+00
	9.088340904216699e-04
	7.751819303787886e-04
	-7.751819303792961e-04
23		1.628000000000000e-10
	1.521545547418518e+00
	1.521545869647954e+00
	0.000000000000000e+00
	3.300000000000000e+00
	1.521545694568172e+00
	1.521545778704450e+00
	1.521545495420386e+00
	3.299500730169771e+00
	1.522045139414886e+00
	3.299500730341534e+00
	1.522044765102706e+00
	3.299500730319247e+00
	1.522045048430807e+00
	3.299500730183544e+00
	1.522044964307888e+00
	3.299500730425403e+00
	1.522044817092581e+00
	1.520637035788194e+00
	9.088337669009368e-04
	1.520636661355158e+00
	9.088340815796893e-04
	1.520636944715504e+00
	9.088340227887966e-04
	1.520636860661268e+00
	9.088338032346375e-04
	1.520636713302584e+00
	9.088342172713040e-04
	7.751819303951098e-04
	-7.751819303944349e-04
24		1.728000000000000e-10
	1.521545350623115e+00
	1.521546022753331e+00
	0.000000000000000e+00
	3.300000000000000e+00
	1.521545859884897e+00
	1.521545708012957e+00
	1.521545444485588e+00
	3.299500730153227e+00
	1.522045292544901e+00
	3.299500730274603e+00
	1.522044714173168e+00
	3.299500730444149e+00
	1.522044977706156e+00
	3.299500730048441e+00
	1.522045129672994e+00
	3.299500730519162e+00
	1.522044620252045e+00
	1.520637188938130e+00
	9.088337275790766e-04
	1.520636610458850e+00
	9.088339739598733e-04
	1.520636873917204e+00
	9.088342361465796e-04
	1.520637026112349e+00
	9.088335655384652e-04
	1.520636516396625e+00
	9.088343884176332e-04
	7.751819303789586e-04
	-7.751819303792524e-04
25		1.828000000000000e-10
	1.521545041001515e+00
	1.521546172483307e+00
	0.000000000000000e+00
	3.300000000000000e+00
	1.521546211134222e+00
	1.521545449301943e+00
	1.521545511839481e+00
	3.299500730233886e+00
	1.522045442280982e+00
	3.299500730071927e+00
	1.522044781574196e+00
	3.299500730691365e+00
	1.522044718912782e+00
	3.299500729851053e+00
	1.522045481008456e+00
	3.299500730591269e+00
	1.522044310573442e+00
	1.520637338640402e+00
	9.088338505011714e-04
	1.520636677976057e+00
	9.088336313362370e-04
	1.520636614969614e+00
	9.088346676980440e-04
	1.520637377581117e+00
	9.088332099948455e-04
	1.520636206656505e+00
	9.088345322460292e-04
	7.751819303953143e-04
	-7.751819303954500e-04
26		1.927999999999999e-10
	1.521544675735947e+00
	1.521546162267505e+00
	0.000000000000000e+00
	3.300000000000000e+00
	1.521546812362223e+00
	1.521544841759850e+00
	1.521545893634673e+00
	3.299500730547861e+00
	1.522045432005416e+00
	3.299500729633352e+00
	1.522045163504632e+00
	3.299500731087079e+00
	1.522044111211614e+00
	3.299500729649408e+00
	1.522046082358593e+00
	3.299500730521881e+00
	1.522043945269320e+00
	1.520637328191488e+00
	9.088343741058955e-04
	1.520637060174618e+00
	9.088328716884039e-04
	1.520636007008001e+00
	9.088353731318635e-04
	1.520637979084578e+00
	9.088328281293981e-04
	1.520635841364784e+00
	9.088344445864279e-04
	7.751819303789045e-04
	-7.751819303773983e-04
27		2.027999999999999e-10
	1.521544494641400e+00
	1.521545646379646e+00
	0.000000000000000e+00
	3.300000000000000e+00
	1.521547621267187e+00
	1.521543714018736e+00
	1.521546909453486e+00
	3.299500731301618e+00
	1.522044915904879e+00
	3.299500728870457e+00
	1.522046179608230e+00
	3.299500731567651e+00
	1.522042983222395e+00
	3.299500729634661e+00
	1.522046891380223e+00
	3.299500730065112e+00
	1.522043764234118e+00
	1.520636811640051e+00
	9.088356688978796e-04
	1.520638076769375e+00
	9.088315235348574e-04
	1.520634878674928e+00
	9.088362597957837e-04
	1.520638788171375e+00
	9.088327417277301e-04
	1.520635660567951e+00
	9.088336978201353e-04
	7.751819303953864e-04
	-7.751819303968613e-04
28		2.127999999999999e-10
	1.521545087801385e+00
	1.521544013219906e+00
	0.000000000000000e+00
	3.300000000000000e+00
	1.521548294673858e+00
	1.521542031263934e+00
	1.521548958801723e+00
	3.299500732723459e+00
	1.522043282250999e+00
	3.299500727821200e+00
	1.522048229440011e+00
	3.299500731843604e+00
	1.522041300179332e+00
	3.299500730237479e+00
	1.522047564769755e+00
	3.299500728813840e+00
	1.522044357710084e+00
	1.520635177089109e+00
	9.088381616648409e-04
	1.520640127322750e+00
	9.088296192955115e-04
	1.520633195361406e+00
	9.088368480569345e-04
	1.520639461276969e+00
	9.088336940437075e-04
	1.520636254773841e+00
	9.088315685825414e-04
	7.751819303791046e-04
	-7.751819303786045e-04
29		2.227999999999999e-10
	1.521547587515405e+00
	1.521540402576304e+00
	0.000000000000000e+00
	3.300000000000000e+00
	1.521547860695941e+00
	1.521540233740562e+00
	1.521552301232984e+00
	3.299500734884357e+00
	1.522039670697459e+00
	3.299500726892820e+00
	1.522051572514479e+00
	3.299500731184796e+00
	1.522039502525178e+00
	3.299500732231774e+00
	1.522047130360251e+00
	3.299500726245751e+00
	1.522046858253221e+00
	1.520631564092535e+00
	9.088420366377338e-04
	1.520643471143547e+00
	9.088278175207117e-04
	1.520631397942659e+00
	9.088358885122958e-04
	1.520639025740199e+00
	9.088370484897202e-04
	1.520638756905482e+00
	9.088271006181188e-04
	7.751819303956264e-04
	-7.751819303962456e-04
30		2.327999999999999e-10
	1.521553747564833e+00
	1.521534008790789e+00
	0.000000000000000e+00
	3.300000000000000e+00
	1.521544287316569e+00
	1.521539855542099e+00
	1.521556486550128e+00
	3.299500737277705e+00
	1.522033275566846e+00
	3.299500727278623e+00
	1.522055758349416e+00
	3.299500728167264e+00
	1.522039124833994e+00
	3.299500736728497e+00
	1.522043555642283e+00
	3.299500721987482e+00
	1.522053019961263e+00
	1.520625167194722e+00
	9.088465115738108e-04
	1.520647657061692e+00
	9.088281397046430e-04
	1.520631021884088e+00
	9.088308921735324e-04
	1.520635448297435e+00
	9.088448104597619e-04
	1.520644921389741e+00
	9.088195377426504e-04
	7.751819303807029e-04
	-7.751819303803133e-04
31		2.427999999999999e-10
	1.521565580158456e+00
	1.521525004192164e+00
	0.000000000000000e+00
	3.300000000000000e+00
	1.521534146391211e+00
	1.521544431323746e+00
	1.521559223710612e+00
	3.299500738037993e+00
	1.522024269558771e+00
	3.299500731518616e+00
	1.522058495107769e+00
	3.299500720546469e+00
	1.522043702675763e+00
	3.299500744819131e+00
	1.522033411785744e+00
	3.299500716517257e+00
	1.522064855237557e+00
	1.520616160133183e+00
	9.088484667758365e-04
	1.520650391681687e+00
	9.088349913469086e-04
	1.520635604239213e+00
	9.088178508851021e-04
	1.520625299276390e+00
	9.088590601995281e-04
	1.520656760508913e+00
	9.088095226087486e-04
	7.751819304012485e-04
	-7.751819304018427e-04
32		2.527999999999999e-10
	1.521583927770937e+00
	1.521516543665431e+00
	0.000000000000000e+00
	3.300000000000000e+00
	1.521512919888557e+00
	1.521560428964609e+00
	1.521554565522923e+00
	3.299500732774733e+00
	1.522015808818159e+00
	3.299500743967900e+00
	1.522053833951424e+00
	3.299500705666383e+00
	1.522059705333935e+00
	3.299500756446271e+00
	1.522012180133664e+00
	3.299500712584182e+00
	1.522083206164727e+00
	1.520607701689792e+00
	9.088403489371149e-04
	1.520645723351005e+00
	9.088560800990578e-04
	1.520651616208388e+00
	9.087918464067627e-04
	1.520604059732929e+00
	9.088800476338584e-04
	1.520675114893515e+00
	9.088015686982813e-04
	7.751819303983512e-04
	-7.751819303995583e-04
33		2.628000000000000e-10
	1.521605021652077e+00
	1.521518260429844e+00
	0.000000000000000e+00
	3.300000000000000e+00
	1.521477072542143e+00
	1.521597337433691e+00
	1.521530693869737e+00
	3.299500713324387e+00
	1.522017529437540e+00
	3.299500770499370e+00
	1.522029954007690e+00
	3.299500682187527e+00
	1.522096623362781e+00
	3.299500767903930e+00
	1.521976325610059e+00
	3.299500717523927e+00
	1.522104302099068e+00
	1.520609433125574e+00
	9.088078261781140e-04
	1.520621827133322e+00
	9.089020911280865e-04
	1.520688549751838e+00
	9.087499223268525e-04
	1.520568196379498e+00
	9.089018716598884e-04
	1.520696209600179e+00
	9.088081809067396e-04
	7.751819304572807e-04
	-7.751819304569788e-04
34		2.728000000000000e-10
	1.521613973221830e+00
	1.521551091052524e+00
	0.000000000000000e+00
	3.300000000000000e+00
	1.521429757995355e+00
	1.521664942595125e+00
	1.521468621434947e+00
	3.299500667482185e+00
	1.522050373200158e+00
	3.299500816034846e+00
	1.521967864372076e+00
	3.299500654350504e+00
	1.522164243216816e+00
	3.299500767408952e+00
	1.521929004491235e+00
	3.299500746161940e+00
	1.522113249609697e+00
	1.520642304411576e+00
	9.087289719530613e-04
	1.520559708077537e+00
	9.089826742894874e-04
	1.520756189683117e+00
	9.086983915841030e-04
	1.520520872194748e+00
	9.089046673315982e-04
	1.520705141995079e+00
	9.088551878556205e-04
	7.751819305795956e-04
	-7.751819305801857e-04
35		2.828000000000000e-10
	1.521574853239210e+00
	1.521651584064475e+00
	0.000000000000000e+00
	3.300000000000000e+00
	1.521392562830512e+00
	1.521764245723914e+00
	1.521345141642256e+00
	3.299500582159308e+00
	1.522150896216416e+00
	3.299500877528893e+00
	1.521844355765368e+00
	3.299500640170494e+00
	1.522263562965058e+00
	3.299500728858091e+00
	1.521891811248877e+00
	3.299500822718994e+00
	1.522074109896698e+00
	1.520742881432279e+00
	9.085791950786951e-04
	1.520436156941688e+00
	9.090945341983776e-04
	1.520855524237138e+00
	9.086671778215333e-04
	1.520483697527111e+00
	9.088433119836207e-04
	1.520665957422173e+00
	9.089856771123484e-04
	7.751819310417100e-04
	-7.751819310425108e-04
36		2.928000000000000e-10
	1.521419642800864e+00
	1.521870253714811e+00
	0.000000000000000e+00
	3.300000000000000e+00
	1.521425032422170e+00
	1.521866919885349e+00
	1.521146542548863e+00
	3.299500454446949e+00
	1.522369620390116e+00
	3.299500929274231e+00
	1.521645719087478e+00
	3.299500684153088e+00
	1.522366243415403e+00
	3.299500605949368e+00
	1.521924308246954e+00
	3.299500977603948e+00
	1.521918848830059e+00
	1.520961691254009e+00
	9.083497895014332e-04
	1.520237477798733e+00
	9.091959046793693e-04
	1.520958187752307e+00
	9.087325626473917e-04
	1.520516264397126e+00
	9.086361456193097e-04
	1.520510600222813e+00
	9.092555034509550e-04
	7.751819324644266e-04
	-7.751819324643838e-04
37		3.028000000000000e-10
	1.521044545296398e+00
	1.522252366590922e+00
	0.000000000000000e+00
	3.300000000000000e+00
	1.521649856817622e+00
	1.521878252198383e+00
	1.520903382958111e+00
	3.299500317167109e+00
	1.522751812582432e+00
	3.299500898069305e+00
	1.521402531040839e+00
	3.299500871927420e+00
	1.522377542444987e+00
	3.299500333326841e+00
	1.522149214960385e+00
	3.299501230910133e+00
	1.521543651449851e+00
	1.521343985895461e+00
	9.080919443524738e-04
	1.519994289771121e+00
	9.091625288283161e-04
	1.520969384324780e+00
	9.090444046475120e-04
	1.520741336848237e+00
	9.081649693628682e-04
	1.520135237051716e+00
	9.097060905605276e-04
	7.751819371214097e-04
	-7.751819371206054e-04
38		3.128000000000000e-10
	1.520333707154679e+00
	1.522781197703575e+00
	0.000000000000000e+00
	3.300000000000000e+00
	1.522271238853817e+00
	1.521583721968445e+00
	1.520758578459082e+00
	3.299500285710898e+00
	1.523280723999430e+00
	3.299500630402475e+00
	1.521257755866831e+00
	3.299501336488287e+00
	1.522082884464104e+00
	3.299499849242594e+00
	1.522770774469063e+00
	3.299501549470545e+00
	1.520832654018780e+00
	1.521872951979529e+00
	9.079990569674128e-04
	1.519849651582962e+00
	9.087278261606614e-04
	1.520674450014764e+00
	9.098406839874824e-04
	1.521363206263458e+00
	9.073114057619548e-04
	1.519424014254609e+00
	9.102910670481615e-04
	7.751819520717599e-04
	-7.751819520722267e-04
39		3.228000000000001e-10
	1.519247711876064e+00
	1.523256739494213e+00
	0.000000000000000e+00
	3.300000000000000e+00
	1.523552982178860e+00
	1.520595992698307e+00
	1.521075147791028e+00
	3.299500626873680e+00
	1.523756269353896e+00
	3.299499866520408e+00
	1.521574511753889e+00
	3.299502231159637e+00
	1.521094849999578e+00
	3.299499165082142e+00
	1.524052825444082e+00
	3.299501761401197e+00
	1.519746466364211e+00
	1.522348343427435e+00
	9.085306804378489e-04
	1.520166849646608e+00
	9.074316555618437e-04
	1.519685853462279e+00
	9.114066719069881e-04
	1.522645723663135e+00
	9.060743027349808e-04
	1.518337633555398e+00
	9.107270593553037e-04
	7.751820003559767e-04
	-7.751820003556378e-04
40		3.328000000000001e-10
	1.518032874752378e+00
	1.523087024538239e+00
	0.000000000000000e+00
	3.300000000000000e+00
	1.525688454836390e+00
	1.518356002240115e+00
	1.522564636602774e+00
	3.299501829982541e+00
	1.523586307127215e+00
	3.299498262479685e+00
	1.523064508685995e+00
	3.299503622228948e+00
	1.518854285871344e+00
	3.299498516889705e+00
	1.526188719150378e+00
	3.299501418560815e+00
	1.518531521652492e+00
	1.522177707344802e+00
	9.105474680689701e-04
	1.521657832402477e+00
	9.046477775716651e-04
	1.517444365318487e+00
	9.138960361467000e-04
	1.524782124626192e+00
	9.048316093646197e-04
	1.517122792222614e+00
	9.102485427944718e-04
	7.751821560067378e-04
	-7.751821560079932e-04
41		3.428000000000001e-10
	1.517611870249678e+00
	1.521005495445547e+00
	0.000000000000000e+00
	3.300000000000000e+00
	1.528451253570845e+00
	1.514307345405653e+00
	1.526354379319299e+00
	3.299504614349756e+00
	1.521503968717843e+00
	3.299495545193079e+00
	1.526855290875728e+00
	3.299505229695481e+00
	1.514804760113696e+00
	3.299498630443470e+00
	1.528951885235725e+00
	3.299499627572055e+00
	1.518110790630642e+00
	1.520093687359179e+00