Title: *** SPICE deck for cell osc9{sch} from library lab1
Date: Sat Feb 15 23:04:31  2020
Plotname: Transient Analysis
Flags: real
No. Variables: 50
No. Points: 1008    
Command: version 1.06.00
Variables:
	0	time	time
	1	net@0	voltage
	2	net@18	voltage
	3	gnd	voltage
	4	vdd	voltage
	5	net@2	voltage
	6	net@4	voltage
	7	net@6	voltage
	8	ring_out	voltage
	9	net@19	voltage
	10	net@21	voltage
	11	net@23	voltage
	12	M:Xinv@9:Mpmos@1#drain	voltage
	13	M:Xinv@9:Mpmos@1#source	voltage
	14	M:Xinv@8:Mpmos@1#drain	voltage
	15	M:Xinv@8:Mpmos@1#source	voltage
	16	M:Xinv@7:Mpmos@1#drain	voltage
	17	M:Xinv@7:Mpmos@1#source	voltage
	18	M:Xinv@6:Mpmos@1#drain	voltage
	19	M:Xinv@6:Mpmos@1#source	voltage
	20	M:Xinv@4:Mpmos@1#drain	voltage
	21	M:Xinv@4:Mpmos@1#source	voltage
	22	M:Xinv@3:Mpmos@1#drain	voltage
	23	M:Xinv@3:Mpmos@1#source	voltage
	24	M:Xinv@2:Mpmos@1#drain	voltage
	25	M:Xinv@2:Mpmos@1#source	voltage
	26	M:Xinv@1:Mpmos@1#drain	voltage
	27	M:Xinv@1:Mpmos@1#source	voltage
	28	M:Xinv@0:Mpmos@1#drain	voltage
	29	M:Xinv@0:Mpmos@1#source	voltage
	30	M:Xinv@9:Mnmos@0#drain	voltage
	31	M:Xinv@9:Mnmos@0#source	voltage
	32	M:Xinv@8:Mnmos@0#drain	voltage
	33	M:Xinv@8:Mnmos@0#source	voltage
	34	M:Xinv@7:Mnmos@0#drain	voltage
	35	M:Xinv@7:Mnmos@0#source	voltage
	36	M:Xinv@6:Mnmos@0#drain	voltage
	37	M:Xinv@6:Mnmos@0#source	voltage
	38	M:Xinv@4:Mnmos@0#drain	voltage
	39	M:Xinv@4:Mnmos@0#source	voltage
	40	M:Xinv@3:Mnmos@0#drain	voltage
	41	M:Xinv@3:Mnmos@0#source	voltage
	42	M:Xinv@2:Mnmos@0#drain	voltage
	43	M:Xinv@2:Mnmos@0#source	voltage
	44	M:Xinv@1:Mnmos@0#drain	voltage
	45	M:Xinv@1:Mnmos@0#source	voltage
	46	M:Xinv@0:Mnmos@0#drain	voltage
	47	M:Xinv@0:Mnmos@0#source	voltage
	48	vgnd#branch	current
	49	vsupply#branch	current
Values:
0		0.000000000000000e+00
	1.521545674158675e+00
	1.521545674158782e+00
	0.000000000000000e+00
	3.300000000000000e+00
	1.521545674161734e+00
	1.521545674114151e+00
	1.521545674158914e+00
	1.521545674158916e+00
	1.521545674158869e+00
	1.521545674157756e+00
	1.521545674158922e+00
	3.299500730292529e+00
	1.522044943872038e+00
	3.299500730292528e+00
	1.522044943872179e+00
	3.299500730292529e+00
	1.522044943871012e+00
	3.299500730292529e+00
	1.522044943872125e+00
	3.299500730292529e+00
	1.522044943872172e+00
	3.299500730292502e+00
	1.522044943872197e+00
	3.299500730292529e+00
	1.522044943827407e+00
	3.299500730292529e+00
	1.522044943874990e+00
	3.299500730292529e+00
	1.522044943871931e+00
	1.520636840179842e+00
	9.088339699312558e-04
	1.520636840179983e+00
	9.088339699299415e-04
	1.520636840178816e+00
	9.088339699311406e-04
	1.520636840179929e+00
	9.088339699312529e-04
	1.520636840179977e+00
	9.088339699312543e-04
	1.520636840180025e+00
	9.088339698804819e-04
	1.520636840135210e+00
	9.088339699320506e-04
	1.520636840182794e+00
	9.088339699311329e-04
	1.520636840179735e+00
	9.088339699310912e-04
	1.395327461775312e-03
	-1.395327461787470e-03
1		1.000000000000000e-13
	1.521545674212383e+00
	1.521545674212491e+00
	0.000000000000000e+00
	3.300000000000000e+00
	1.521545674215450e+00
	1.521545674167927e+00
	1.521545674213076e+00
	1.521545674212734e+00
	1.521545674212600e+00
	1.521545674211469e+00
	1.521545674212638e+00
	3.299500730287379e+00
	1.522044943931551e+00
	3.299500730287378e+00
	1.522044943931699e+00
	3.299500730287379e+00
	1.522044943930529e+00
	3.299500730287381e+00
	1.522044943931661e+00
	3.299500730287388e+00
	1.522044943931799e+00
	3.299500730287353e+00
	1.522044943932151e+00
	3.299500730287379e+00
	1.522044943886984e+00
	3.299500730287378e+00
	1.522044943934509e+00
	3.299500730287378e+00
	1.522044943931443e+00
	1.520636840227808e+00
	9.088339756465471e-04
	1.520636840227956e+00
	9.088339756451601e-04
	1.520636840226786e+00
	9.088339756467400e-04
	1.520636840227918e+00
	9.088339756486203e-04
	1.520636840228054e+00
	9.088339756557389e-04
	1.520636840228427e+00
	9.088339755970194e-04
	1.520636840183240e+00
	9.088339756473342e-04
	1.520636840230766e+00
	9.088339756462421e-04
	1.520636840227700e+00
	9.088339756462252e-04
	1.395327473101922e-03
	-1.395327473101983e-03
2		2.000000000000000e-13
	1.521545674266005e+00
	1.521545674266112e+00
	0.000000000000000e+00
	3.300000000000000e+00
	1.521545674269080e+00
	1.521545674221609e+00
	1.521545674267135e+00
	1.521545674266459e+00
	1.521545674266245e+00
	1.521545674265093e+00
	1.521545674266266e+00
	3.299500730287175e+00
	1.522044943985261e+00
	3.299500730287174e+00
	1.522044943985415e+00
	3.299500730287176e+00
	1.522044943984242e+00
	3.299500730287177e+00
	1.522044943985396e+00
	3.299500730287185e+00
	1.522044943985613e+00
	3.299500730287149e+00
	1.522044943986299e+00
	3.299500730287175e+00
	1.522044943940756e+00
	3.299500730287174e+00
	1.522044943988229e+00
	3.299500730287175e+00
	1.522044943985155e+00
	1.520636840281201e+00
	9.088339760025660e-04
	1.520636840281355e+00
	9.088339760011854e-04
	1.520636840280182e+00
	9.088339760028545e-04
	1.520636840281335e+00
	9.088339760048166e-04
	1.520636840281551e+00
	9.088339760124661e-04
	1.520636840282258e+00
	9.088339759531018e-04
	1.520636840236695e+00
	9.088339760034488e-04
	1.520636840284168e+00
	9.088339760023428e-04
	1.520636840281094e+00
	9.088339760022781e-04
	1.395327473584421e-03
	-1.395327473580995e-03
3		4.000000000000000e-13
	1.521545674371300e+00
	1.521545674371402e+00
	0.000000000000000e+00
	3.300000000000000e+00
	1.521545674374392e+00
	1.521545674327042e+00
	1.521545674373385e+00
	1.521545674371966e+00
	1.521545674371577e+00
	1.521545674370385e+00
	1.521545674371572e+00
	3.299500730287183e+00
	1.522044944090508e+00
	3.299500730287181e+00
	1.522044944090678e+00
	3.299500730287182e+00
	1.522044944089491e+00
	3.299500730287185e+00
	1.522044944090684e+00
	3.299500730287193e+00
	1.522044944091077e+00
	3.299500730287158e+00
	1.522044944092503e+00
	3.299500730287182e+00
	1.522044944046145e+00
	3.299500730287182e+00
	1.522044944093498e+00
	3.299500730287182e+00
	1.522044944090406e+00
	1.520636840386393e+00
	9.088339761200480e-04
	1.520636840386565e+00
	9.088339761185137e-04
	1.520636840385377e+00
	9.088339761201782e-04
	1.520636840386569e+00
	9.088339761226098e-04
	1.520636840386961e+00
	9.088339761326193e-04
	1.520636840388408e+00
	9.088339760710914e-04
	1.520636840342030e+00
	9.088339761209010e-04
	1.520636840389383e+00
	9.088339761197631e-04
	1.520636840386291e+00
	9.088339761196200e-04
	1.395327473659011e-03
	-1.395327473655807e-03
4		8.000000000000000e-13
	1.521545674570559e+00
	1.521545674570653e+00
	0.000000000000000e+00
	3.300000000000000e+00
	1.521545674573691e+00
	1.521545674526583e+00
	1.521545674574588e+00
	1.521545674571600e+00
	1.521545674570887e+00
	1.521545674569641e+00
	1.521545674570867e+00
	3.299500730287252e+00
	1.522044944289668e+00
	3.299500730287251e+00
	1.522044944289882e+00
	3.299500730287251e+00
	1.522044944288656e+00
	3.299500730287254e+00
	1.522044944289903e+00
	3.299500730287263e+00
	1.522044944290619e+00
	3.299500730287226e+00
	1.522044944293617e+00
	3.299500730287253e+00
	1.522044944245596e+00
	3.299500730287252e+00
	1.522044944292705e+00
	3.299500730287252e+00
	1.522044944289573e+00
	1.520636840585485e+00
	9.088339762503261e-04
	1.520636840585700e+00
	9.088339762487504e-04
	1.520636840584473e+00
	9.088339762502772e-04
	1.520636840585719e+00
	9.088339762525785e-04
	1.520636840586433e+00
	9.088339762638112e-04
	1.520636840589453e+00
	9.088339762013960e-04
	1.520636840541412e+00
	9.088339762511544e-04
	1.520636840588522e+00
	9.088339762499290e-04
	1.520636840585391e+00
	9.088339762498404e-04
	1.395327473702007e-03
	-1.395327473697142e-03
5		1.600000000000000e-12
	1.521545674927713e+00
	1.521545674927800e+00
	0.000000000000000e+00
	3.300000000000000e+00
	1.521545674930921e+00
	1.521545674884292e+00
	1.521545674935511e+00
	1.521545674929248e+00
	1.521545674928071e+00
	1.521545674926799e+00
	1.521545674928099e+00
	3.299500730287327e+00
	1.522044944646660e+00
	3.299500730287325e+00
	1.522044944646959e+00
	3.299500730287327e+00
	1.522044944645659e+00
	3.299500730287328e+00
	1.522044944646932e+00
	3.299500730287340e+00
	1.522044944648111e+00
	3.299500730287302e+00
	1.522044944654384e+00
	3.299500730287327e+00
	1.522044944603149e+00
	3.299500730287326e+00
	1.522044944649781e+00
	3.299500730287326e+00
	1.522044944646573e+00
	1.520636840942322e+00
	9.088339765666941e-04
	1.520636840942622e+00
	9.088339765650306e-04
	1.520636840941321e+00
	9.088339765663804e-04
	1.520636840942593e+00
	9.088339765687470e-04
	1.520636840943769e+00
	9.088339765849602e-04
	1.520636840950065e+00
	9.088339765187484e-04
	1.520636840898810e+00
	9.088339765675444e-04
	1.520636840945443e+00
	9.088339765662283e-04
	1.520636840942235e+00
	9.088339765661297e-04
	1.395327473869058e-03
	-1.395327473864560e-03
6		3.200000000000000e-12
	1.521545675503384e+00
	1.521545675503430e+00
	0.000000000000000e+00
	3.300000000000000e+00
	1.521545675506747e+00
	1.521545675461045e+00
	1.521545675518631e+00
	1.521545675504926e+00
	1.521545675503480e+00
	1.521545675502398e+00
	1.521545675503896e+00
	3.299500730287493e+00
	1.522044945222033e+00
	3.299500730287491e+00
	1.522044945222499e+00
	3.299500730287491e+00
	1.522044945221000e+00
	3.299500730287492e+00
	1.522044945222081e+00
	3.299500730287509e+00
	1.522044945223530e+00
	3.299500730287467e+00
	1.522044945237247e+00
	3.299500730287493e+00
	1.522044945179645e+00
	3.299500730287491e+00
	1.522044945225349e+00
	3.299500730287491e+00
	1.522044945221986e+00
	1.520636841517475e+00
	9.088339770017579e-04
	1.520636841517942e+00
	9.088339769997767e-04
	1.520636841516442e+00
	9.088339770004620e-04
	1.520636841517523e+00
	9.088339770018959e-04
	1.520636841518964e+00
	9.088339770276427e-04
	1.520636841532707e+00
	9.088339769550913e-04
	1.520636841475086e+00
	9.088339770028037e-04
	1.520636841520792e+00
	9.088339770012243e-04
	1.520636841517429e+00
	9.088339770010151e-04
	1.395327474056801e-03
	-1.395327474054992e-03
7		6.400000000000000e-12
	1.521545676259007e+00
	1.521545676258889e+00
	0.000000000000000e+00
	3.300000000000000e+00
	1.521545676262639e+00
	1.521545676218456e+00
	1.521545676288120e+00
	1.521545676256788e+00
	1.521545676258259e+00
	1.521545676257985e+00
	1.521545676259818e+00
	3.299500730287670e+00
	1.522044945977161e+00
	3.299500730287670e+00
	1.522044945978090e+00
	3.299500730287668e+00
	1.522044945976257e+00
	3.299500730287664e+00
	1.522044945976530e+00
	3.299500730287695e+00
	1.522044945975057e+00
	3.299500730287647e+00
	1.522044946006404e+00
	3.299500730287671e+00
	1.522044945936726e+00
	3.299500730287669e+00
	1.522044945980911e+00
	3.299500730287669e+00
	1.522044945977279e+00
	1.520636842272288e+00
	9.088339776383078e-04
	1.520636842273218e+00
	9.088339776361543e-04
	1.520636842271384e+00
	9.088339776357880e-04
	1.520636842271658e+00
	9.088339776306505e-04
	1.520636842270171e+00
	9.088339776786882e-04
	1.520636842301548e+00
	9.088339775937484e-04
	1.520636842231851e+00
	9.088339776392145e-04
	1.520636842276037e+00
	9.088339776373371e-04
	1.520636842272406e+00
	9.088339776368753e-04
	1.395327474374065e-03
	-1.395327474367965e-03
8		1.280000000000000e-11
	1.521545676924984e+00
	1.521545676924232e+00
	0.000000000000000e+00
	3.300000000000000e+00
	1.521545676928949e+00
	1.521545676887064e+00
	1.521545676977570e+00
	1.521545676902989e+00
	1.521545676927083e+00
	1.521545676924319e+00
	1.521545676926304e+00
	3.299500730287858e+00
	1.522044946642207e+00
	3.299500730287859e+00
	1.522044946644279e+00
	3.299500730287861e+00
	1.522044946642295e+00
	3.299500730287837e+00
	1.522044946645060e+00
	3.299500730287895e+00
	1.522044946620952e+00
	3.299500730287837e+00
	1.522044946695558e+00
	3.299500730287860e+00
	1.522044946605037e+00
	3.299500730287859e+00
	1.522044946646924e+00
	3.299500730287857e+00
	1.522044946642959e+00
	1.520636842937077e+00
	9.088339781466752e-04
	1.520636842939150e+00
	9.088339781445607e-04
	1.520636842937164e+00
	9.088339781497690e-04
	1.520636842939940e+00
	9.088339781115120e-04
	1.520636842915800e+00
	9.088339782100938e-04
	1.520636842990444e+00
	9.088339781056002e-04
	1.520636842899906e+00
	9.088339781476922e-04
	1.520636842941794e+00
	9.088339781453542e-04
	1.520636842937830e+00
	9.088339781440148e-04
	1.395327474595681e-03
	-1.395327474594048e-03
9		2.280000000000000e-11
	1.521545677144409e+00
	1.521545677141028e+00
	0.000000000000000e+00
	3.300000000000000e+00
	1.521545677147519e+00
	1.521545677107959e+00
	1.521545677223136e+00
	1.521545677068895e+00
	1.521545677178730e+00
	1.521545677133061e+00
	1.521545677147507e+00
	3.299500730287900e+00
	1.522044946858909e+00
	3.299500730287887e+00
	1.522044946865389e+00
	3.299500730287929e+00
	1.522044946850938e+00
	3.299500730287842e+00
	1.522044946896627e+00
	3.299500730287948e+00
	1.522044946786753e+00
	3.299500730287878e+00
	1.522044946941030e+00
	3.299500730287898e+00
	1.522044946825839e+00
	3.299500730287898e+00
	1.522044946865400e+00
	3.299500730287896e+00
	1.522044946862291e+00
	1.520636843153678e+00
	9.088339783541156e-04
	1.520636843160165e+00
	9.088339783329207e-04
	1.520636843145693e+00
	9.088339783994428e-04
	1.520636843191431e+00
	9.088339782530461e-04
	1.520636843081490e+00
	9.088339784396759e-04
	1.520636843235816e+00
	9.088339783129608e-04
	1.520636843120608e+00
	9.088339783512606e-04
	1.520636843160171e+00
	9.088339783502956e-04
	1.520636843157063e+00
	9.088339783454824e-04
	1.395327474708354e-03
	-1.395327474705158e-03
10		3.280000000000000e-11
	1.521545677156583e+00
	1.521545677140767e+00
	0.000000000000000e+00
	3.300000000000000e+00
	1.521545677153808e+00
	1.521545677117573e+00
	1.521545677251785e+00
	1.521545677008992e+00
	1.521545677267891e+00
	1.521545677090231e+00
	1.521545677176875e+00
	3.299500730287939e+00
	1.522044946858639e+00
	3.299500730287865e+00
	1.522044946894758e+00
	3.299500730288005e+00
	1.522044946808083e+00
	3.299500730287820e+00
	1.522044946985802e+00
	3.299500730287976e+00
	1.522044946726836e+00
	3.299500730287899e+00
	1.522044946969673e+00
	3.299500730287916e+00
	1.522044946835446e+00
	3.299500730287920e+00
	1.522044946871682e+00
	3.299500730287907e+00
	1.522044946874460e+00
	1.520636843153407e+00
	9.088339783634281e-04
	1.520636843189565e+00
	9.088339782424978e-04
	1.520636843102811e+00
	9.088339784782652e-04
	1.520636843280643e+00
	9.088339781569442e-04
	1.520636843021573e+00
	9.088339784374029e-04
	1.520636843264465e+00
	9.088339782946811e-04
	1.520636843130225e+00
	9.088339783276085e-04
	1.520636843166459e+00
	9.088339783346849e-04
	1.520636843169244e+00
	9.088339783125804e-04
	1.395327474681505e-03
	-1.395327474676492e-03
11		4.280000000000000e-11
	1.521545677176430e+00
	1.521545677098591e+00
	0.000000000000000e+00
	3.300000000000000e+00
	1.521545677144976e+00
	1.521545677122100e+00
	1.521545677268109e+00
	1.521545676933650e+00
	1.521545677402296e+00
	1.521545676958540e+00
	1.521545677262776e+00
	3.299500730287991e+00
	1.522044946816451e+00
	3.299500730287751e+00
	1.522044946980691e+00
	3.299500730288075e+00
	1.522044946676359e+00
	3.299500730287761e+00
	1.522044947120234e+00
	3.299500730287967e+00
	1.522044946651490e+00
	3.299500730287886e+00
	1.522044946985998e+00
	3.299500730287892e+00
	1.522044946839978e+00
	3.299500730287921e+00
	1.522044946862851e+00
	3.299500730287855e+00
	1.522044946894315e+00
	1.520636843111169e+00
	9.088339785058180e-04
	1.520636843275544e+00
	9.088339781044552e-04
	1.520636842971017e+00
	9.088339786622621e-04
	1.520636843415096e+00
	9.088339781052002e-04
	1.520636842946209e+00
	9.088339784782878e-04
	1.520636843280778e+00
	9.088339783292531e-04
	1.520636843134749e+00
	9.088339783428409e-04
	1.520636843157607e+00
	9.088339783895751e-04
	1.520636843189107e+00
	9.088339782817324e-04
	1.395327474711569e-03
	-1.395327474707963e-03
12		5.279999999999999e-11
	1.521545677258487e+00
	1.521545676948804e+00
	0.000000000000000e+00
	3.300000000000000e+00
	1.521545677103892e+00
	1.521545677141506e+00
	1.521545677275024e+00
	1.521545676856161e+00
	1.521545677587278e+00
	1.521545676708795e+00
	1.521545677487591e+00
	3.299500730288173e+00
	1.522044946666614e+00
	3.299500730287599e+00
	1.522044947205566e+00
	3.299500730288205e+00
	1.522044946426557e+00
	3.299500730287737e+00
	1.522044947305241e+00
	3.299500730287982e+00
	1.522044946573994e+00
	3.299500730287920e+00
	1.522044946992908e+00
	3.299500730287875e+00
	1.522044946859387e+00
	3.299500730288004e+00
	1.522044946821750e+00
	3.299500730287753e+00
	1.522044946976397e+00
	1.520636842961244e+00
	9.088339787628857e-04
	1.520636843500539e+00
	9.088339777779006e-04
	1.520636842721147e+00
	9.088339788410022e-04
	1.520636843600145e+00
	9.088339779998921e-04
	1.520636842868722e+00
	9.088339784517497e-04
	1.520636843287690e+00
	9.088339783292651e-04
	1.520636843154188e+00
	9.088339782590448e-04
	1.520636843116481e+00
	9.088339784732870e-04
	1.520636843271266e+00
	9.088339780560244e-04
	1.395327474681669e-03
	-1.395327474677751e-03
13		6.279999999999999e-11
	1.521545677527475e+00
	1.521545676554360e+00
	0.000000000000000e+00
	3.300000000000000e+00
	1.521545676947416e+00
	1.521545677223969e+00
	1.521545677248914e+00
	1.521545676790180e+00
	1.521545677814766e+00
	1.521545676313601e+00
	1.521545677947266e+00
	3.299500730288477e+00
	1.522044946272063e+00
	3.299500730287328e+00
	1.522044947665353e+00
	3.299500730288321e+00
	1.522044946031293e+00
	3.299500730287691e+00
	1.522044947532759e+00
	3.299500730287938e+00
	1.522044946508015e+00
	3.299500730287972e+00
	1.522044946966788e+00
	3.299500730287732e+00
	1.522044946941880e+00
	3.299500730288198e+00
	1.522044946665227e+00
	3.299500730287443e+00
	1.522044947245469e+00
	1.520636842566480e+00
	9.088339793497869e-04
	1.520636843960485e+00
	9.088339773495935e-04
	1.520636842325777e+00
	9.088339791130036e-04
	1.520636843827678e+00
	9.088339779692663e-04
	1.520636842802746e+00
	9.088339784351515e-04
	1.520636843261520e+00
	9.088339784696915e-04
	1.520636843236739e+00
	9.088339780766104e-04
	1.520636842959827e+00
	9.088339788541308e-04
	1.520636843540502e+00
	9.088339775823569e-04
	1.395327474711676e-03
	-1.395327474707174e-03
14		7.280000000000000e-11
	1.521545678234270e+00
	1.521545675707263e+00
	0.000000000000000e+00
	3.300000000000000e+00
	1.521545676457267e+00
	1.521545677520446e+00
	1.521545677099351e+00
	1.521545676785732e+00
	1.521545678057033e+00
	1.521545675760597e+00
	1.521545678745503e+00
	3.299500730289023e+00
	1.522044945424755e+00
	3.299500730287006e+00
	1.522044948463749e+00
	3.299500730288465e+00
	1.522044945478202e+00
	3.299500730287732e+00
	1.522044947775041e+00
	3.299500730287827e+00
	1.522044946503586e+00
	3.299500730288225e+00
	1.522044946817170e+00
	3.299500730287368e+00
	1.522044947238446e+00
	3.299500730288741e+00
	1.522044946174929e+00
	3.299500730286861e+00
	1.522044947952458e+00
	1.520636841718838e+00
	9.088339802627636e-04
	1.520636844759128e+00
	9.088339767048274e-04
	1.520636841772597e+00
	9.088339793291517e-04
	1.520636844069969e+00
	9.088339779706130e-04
	1.520636842798396e+00
	9.088339781979028e-04
	1.520636843111782e+00
	9.088339788379101e-04
	1.520636843533535e+00
	9.088339774084780e-04
	1.520636842469227e+00
	9.088339797259093e-04
	1.520636844247873e+00
	9.088339765135837e-04
	1.395327474681548e-03
	-1.395327474679104e-03
15		8.280000000000000e-11
	1.521545679801944e+00
	1.521545674136803e+00
	0.000000000000000e+00
	3.300000000000000e+00
	1.521545675171837e+00
	1.521545678422035e+00
	1.521545676550509e+00
	1.521545677014866e+00
	1.521545678215081e+00
	1.521545675081054e+00
	1.521545679972887e+00
	3.299500730289788e+00
	1.522044943853956e+00
	3.299500730286597e+00
	1.522044949691353e+00
	3.299500730288494e+00
	1.522044944798581e+00
	3.299500730287928e+00
	1.522044947933071e+00
	3.299500730287371e+00
	1.522044946732817e+00
	3.299500730288905e+00
	1.522044946268160e+00
	3.299500730286393e+00
	1.522044948140303e+00
	3.299500730289845e+00
	1.522044944889146e+00
	3.299500730285779e+00
	1.522044949520529e+00
	1.520636840147502e+00
	9.088339816946319e-04
	1.520636845987006e+00
	9.088339760079163e-04
	1.520636841092906e+00
	9.088339794662255e-04
	1.520636844227880e+00
	9.088339783417753e-04
	1.520636843027863e+00
	9.088339774904319e-04
	1.520636842562359e+00
	9.088339800404698e-04
	1.520636844435949e+00
	9.088339757990496e-04
	1.520636841182746e+00
	9.088339816935568e-04
	1.520636845816615e+00
	9.088339746639004e-04
	1.395327474711445e-03
	-1.395327474709013e-03
16		9.280000000000001e-11
	1.521545682850796e+00
	1.521545671544467e+00
	0.000000000000000e+00
	3.300000000000000e+00
	1.521545672255090e+00
	1.521545680783943e+00
	1.521545674890427e+00
	1.521545677986440e+00
	1.521545677963150e+00
	1.521545674447432e+00
	1.521545681645575e+00
	3.299500730290817e+00
	1.522044941261116e+00
	3.299500730286317e+00
	1.522044951364283e+00
	3.299500730288214e+00
	1.522044944164940e+00
	3.299500730288735e+00
	1.522044947680978e+00
	3.299500730286107e+00
	1.522044947704705e+00
	3.299500730290684e+00
	1.522044944607587e+00
	3.299500730284310e+00
	1.522044950502861e+00
	3.299500730291962e+00
	1.522044941971652e+00
	3.299500730284101e+00
	1.522044952570071e+00
	1.520636837553964e+00
	9.088339835127007e-04
	1.520636847660203e+00
	9.088339753897783e-04
	1.520636840459403e+00
	9.088339789833809e-04
	1.520636843975360e+00
	9.088339796335059e-04
	1.520636844000501e+00
	9.088339752988990e-04
	1.520636840900753e+00
	9.088339830230393e-04
	1.520636846799799e+00
	9.088339721447593e-04
	1.520636838263936e+00
	9.088339853475860e-04
	1.520636848867286e+00
	9.088339716181690e-04
	1.395327474681697e-03
	-1.395327474677511e-03
17		1.028000000000000e-10
	1.521545688168248e+00
	1.521545667720597e+00
	0.000000000000000e+00
	3.300000000000000e+00
	1.521545666375127e+00
	1.521545686235392e+00
	1.521545670526670e+00
	1.521545681011717e+00
	1.521545676355448e+00
	1.521545674458004e+00
	1.521545683516945e+00
	3.299500730291810e+00
	1.522044937436610e+00
	3.299500730286572e+00
	1.522044953235825e+00
	3.299500730286837e+00
	1.522044944175744e+00
	3.299500730291065e+00
	1.522044946072709e+00
	3.299500730282825e+00
	1.522044950730883e+00
	3.299500730294614e+00
	1.522044940242627e+00
	3.299500730280194e+00
	1.522044955955716e+00
	3.299500730295489e+00
	1.522044936090316e+00
	3.299500730281692e+00
	1.522044957888618e+00
	1.520636833728671e+00
	9.088339854524778e-04
	1.520636849531691e+00
	9.088339757565842e-04
	1.520636840470930e+00
	9.088339767647536e-04
	1.520636842365731e+00
	9.088339836218264e-04
	1.520636847028596e+00
	9.088339697577916e-04
	1.520636836533387e+00
	9.088339898532247e-04
	1.520636852255209e+00
	9.088339650186928e-04
	1.520636832380288e+00
	9.088339916466606e-04
	1.520636854187454e+00
	9.088339673269662e-04
	1.395327474711717e-03
	-1.395327474708966e-03
18		1.128000000000000e-10
	1.521545696518932e+00
	1.521545662901436e+00
	0.000000000000000e+00
	3.300000000000000e+00
	1.521545655664164e+00
	1.521545697537996e+00
	1.521545660307303e+00
	1.521545689071433e+00
	1.521545670959024e+00
	1.521545676862124e+00
	1.521545684545674e+00
	3.299500730291987e+00
	1.522044932616839e+00
	3.299500730288770e+00
	1.522044954264304e+00
	3.299500730282618e+00
	1.522044946580845e+00
	3.299500730297131e+00
	1.522044940674637e+00
	3.299500730275411e+00
	1.522044958792835e+00
	3.299500730302581e+00
	1.522044930020606e+00
	3.299500730272968e+00
	1.522044967261021e+00
	3.299500730300861e+00
	1.522044925377052e+00
	3.299500730278919e+00
	1.522044966240823e+00
	1.520636828908540e+00
	9.088339859917582e-04
	1.520636850559063e+00
	9.088339792705454e-04
	1.520636842878457e+00
	9.088339696070372e-04
	1.520636836964102e+00
	9.088339939061535e-04
	1.520636855095055e+00
	9.088339569387821e-04
	1.520636826306436e+00
	9.088340036564851e-04
	1.520636863565171e+00
	9.088339522331649e-04
	1.520636821663451e+00
	9.088340012119144e-04
	1.520636862541696e+00
	9.088339621370593e-04
	1.395327474681746e-03
	-1.395327474676712e-03
19		1.228000000000000e-10
	1.521545707998023e+00
	1.521545658767518e+00
	0.000000000000000e+00
	3.300000000000000e+00
	1.521545637968553e+00
	1.521545718862701e+00
	1.521545638625873e+00
	1.521545708241493e+00
	1.521545656170506e+00
	1.521545686185848e+00
	1.521545681547478e+00
	3.299500730288823e+00
	1.522044928482953e+00
	3.299500730296222e+00
	1.522044951264509e+00
	3.299500730271434e+00
	1.522044955907548e+00
	3.299500730311119e+00
	1.522044925881961e+00
	3.299500730260035e+00
	1.522044977967914e+00
	3.299500730317150e+00
	1.522044908333906e+00
	3.299500730261383e+00
	1.522044988590455e+00
	3.299500730307788e+00
	1.522044907678008e+00
	3.299500730277145e+00
	1.522044977721637e+00
	1.520636824776097e+00
	9.088339810791958e-04
	1.520636847555062e+00
	9.088339918049724e-04
	1.520636852211707e+00
	9.088339506277405e-04
	1.520636822162974e+00
	9.088340180043761e-04
	1.520636874279611e+00
	9.088339303093796e-04
	1.520636804610457e+00
	9.088340292819540e-04
	1.520636884902215e+00
	9.088339316679730e-04
	1.520636803959531e+00
	9.088340139057950e-04
	1.520636874024147e+00
	9.088339585168521e-04
	1.395327474711631e-03
	-1.395327474709649e-03
20		1.328000000000000e-10
	1.521545720181609e+00
	1.521545660964336e+00
	0.000000000000000e+00
	3.300000000000000e+00
	1.521545611950931e+00
	1.521545755594375e+00
	1.521545596508244e+00
	1.521545749751597e+00
	1.521545620296954e+00
	1.521545712985346e+00
	1.521545666134642e+00
	3.299500730276097e+00
	1.522044930682158e+00
	3.299500730316667e+00
	1.522044935846399e+00
	3.299500730245108e+00
	1.522044982714743e+00
	3.299500730340724e+00
	1.522044889998919e+00
	3.299500730230969e+00
	1.522045019488252e+00
	3.299500730341545e+00
	1.522044866206701e+00
	3.299500730245177e+00
	1.522045025329592e+00
	3.299500730314092e+00
	1.522044881656037e+00
	3.299500730280868e+00
	1.522044989906107e+00
	1.520636826982303e+00
	9.088339598889985e-04
	1.520636832125050e+00
	9.088340264588860e-04
	1.520636879034728e+00
	9.088339053896649e-04
	1.520636786261756e+00
	9.088340692250955e-04
	1.520636915818298e+00
	9.088338794035354e-04
	1.520636762467398e+00
	9.088340724384723e-04
	1.520636921652459e+00
	9.088339023323546e-04
	1.520636777932555e+00
	9.088340259994682e-04
	1.520636886207374e+00
	9.088339638169617e-04
	1.395327474681808e-03
	-1.395327474678550e-03
21		1.428000000000000e-10
	1.521545723413638e+00
	1.521545684885849e+00
	0.000000000000000e+00
	3.300000000000000e+00
	1.521545580438688e+00
	1.521545812604266e+00
	1.521545521374873e+00
	1.521545832437623e+00
	1.521545541045096e+00
	1.521545779733413e+00
	1.521545618434491e+00
	3.299500730239236e+00
	1.522044954612741e+00
	3.299500730365978e+00
	1.522044888132124e+00
	3.299500730188273e+00
	1.522045049480716e+00
	3.299500730398257e+00
	1.522044810727261e+00
	3.299500730180474e+00
	1.522045102193460e+00
	3.299500730377889e+00
	1.522044791057511e+00
	3.299500730227404e+00
	1.522045082349756e+00
	3.299500730311954e+00
	1.522044850140182e+00
	3.299500730301633e+00
	1.522044993135086e+00
	1.520636850934149e+00
	9.088338975865390e-04
	1.520636784381294e+00
	9.088341109930833e-04
	1.520636945835452e+00
	9.088338071818117e-04
	1.520636706954034e+00
	9.088341696752054e-04
	1.520636998556023e+00
	9.088337903647988e-04
	1.520636687293772e+00
	9.088341376833706e-04
	1.520636978685793e+00
	9.088338691728824e-04
	1.520636746415871e+00
	9.088340246191556e-04
	1.520636889425355e+00
	9.088339979207292e-04
	1.395327474711546e-03
	-1.395327474710435e-03
22		1.528000000000000e-10
	1.521545689864455e+00
	1.521545767789856e+00
	0.000000000000000e+00
	3.300000000000000e+00
	1.521545559173197e+00
	1.521545888364745e+00
	1.521545399431937e+00
	1.521545984439890e+00
	1.521545379553366e+00
	1.521545930409327e+00
	1.521545495341063e+00
	3.299500730147556e+00
	1.522045037542328e+00
	3.299500730474664e+00
	1.522044765005069e+00
	3.299500730075098e+00
	1.522045200194791e+00
	3.299500730501445e+00
	1.522044649197413e+00
	3.299500730101328e+00
	1.522045254228657e+00
	3.299500730422849e+00
	1.522044669091350e+00
	3.299500730221227e+00
	1.522045158120925e+00
	3.299500730280218e+00
	1.522044828877273e+00
	3.299500730366861e+00
	1.522044959570905e+00
	1.520636933918196e+00
	9.088337408192906e-04
	1.520636661188072e+00
	9.088342985093864e-04
	1.520637096620051e+00
	9.088336100825971e-04
	1.520636545358259e+00
	9.088343510888533e-04
	1.520637150643656e+00
	9.088336491524541e-04
	1.520636565295625e+00
	9.088342202017454e-04
	1.520637054465088e+00
	9.088338538061427e-04
	1.520636725168730e+00
	9.088339736260213e-04
	1.520636855824046e+00
	9.088341076672516e-04
	1.395327474681816e-03
	-1.395327474676295e-03
23		1.628000000000000e-10
	1.521545550194453e+00
	1.521545992086375e+00
	0.000000000000000e+00
	3.300000000000000e+00
	1.521545597463194e+00
	1.521545958916406e+00
	1.521545225617408e+00
	1.521546240637917e+00
	1.521545074712253e+00
	1.521546244200493e+00
	1.521545210539000e+00
	3.299500729940811e+00
	1.522045261901553e+00
	3.299500730696028e+00
	1.522044480129782e+00
	3.299500729866346e+00
	1.522045514061215e+00
	3.299500730670139e+00
	1.522044344288676e+00
	3.299500729994593e+00
	1.522045510477611e+00
	3.299500730455279e+00
	1.522044495249085e+00
	3.299500730264742e+00
	1.522045228674379e+00
	3.299500730167563e+00
	1.522044867190727e+00
	3.299500730535601e+00
	1.522044819855372e+00
	1.520637158402678e+00
	9.088333847473957e-04
	1.520636376175582e+00
	9.088346831836686e-04
	1.520637410618929e+00
	9.088332440512052e-04
	1.520636240339059e+00
	9.088346506329212e-04
	1.520637406966499e+00
	9.088334553950091e-04
	1.520636391424814e+00
	9.088342856445937e-04
	1.520637124999573e+00
	9.088339208665197e-04
	1.520636763545122e+00
	9.088337853228701e-04
	1.520636716009054e+00
	9.088343953522639e-04
	1.395327474711370e-03
	-1.395327474708908e-03
24		1.728000000000000e-10
	1.521545147628892e+00
	1.521546526361115e+00
	0.000000000000000e+00
	3.300000000000000e+00
	1.521545823023182e+00
	1.521545939111019e+00
	1.521545032476800e+00
	1.521546626682536e+00
	1.521544543873593e+00
	1.521546851010780e+00
	1.521544604199650e+00
	3.299500729510319e+00
	1.522045796316020e+00
	3.299500731114797e+00
	1.522043873642738e+00
	3.299500729512626e+00
	1.522046121008897e+00
	3.299500730913168e+00
	1.522043813340819e+00
	3.299500729891921e+00
	1.522045896589145e+00
	3.299500730408032e+00
	1.522044302091463e+00