Title: *** SPICE deck for cell tb_osc11_sw{sch} from library lab1
Date: Thu Feb 13 17:51:58  2020
Plotname: Transient Analysis
Flags: real
No. Variables: 67
No. Points: 167     
Command: version 1.06.00
Variables:
	0	time	time
	1	net@23	voltage
	2	gnd	voltage
	3	Xosc11_sw@0:net@11	voltage
	4	Xosc11_sw@0:net@1	voltage
	5	vdd	voltage
	6	Xosc11_sw@0:net@2	voltage
	7	Xosc11_sw@0:net@3	voltage
	8	Xosc11_sw@0:net@27	voltage
	9	Xosc11_sw@0:net@15	voltage
	10	Xosc11_sw@0:net@26	voltage
	11	Xosc11_sw@0:net@17	voltage
	12	Xosc11_sw@0:net@19	voltage
	13	Xosc11_sw@0:net@22	voltage
	14	ring_out_11	voltage
	15	X:Xosc11_sw@0:Xnand@0:net@0	voltage
	16	M:X:Xosc11_sw@0:Xnand@0:Mpmos@1#drain	voltage
	17	M:X:Xosc11_sw@0:Xnand@0:Mpmos@1#source	voltage
	18	M:X:Xosc11_sw@0:Xnand@0:Mpmos@0#drain	voltage
	19	M:X:Xosc11_sw@0:Xnand@0:Mpmos@0#source	voltage
	20	M:X:Xosc11_sw@0:Xinv@10:Mpmos@1#drain	voltage
	21	M:X:Xosc11_sw@0:Xinv@10:Mpmos@1#source	voltage
	22	M:X:Xosc11_sw@0:Xinv@9:Mpmos@1#drain	voltage
	23	M:X:Xosc11_sw@0:Xinv@9:Mpmos@1#source	voltage
	24	M:X:Xosc11_sw@0:Xinv@8:Mpmos@1#drain	voltage
	25	M:X:Xosc11_sw@0:Xinv@8:Mpmos@1#source	voltage
	26	M:X:Xosc11_sw@0:Xinv@7:Mpmos@1#drain	voltage
	27	M:X:Xosc11_sw@0:Xinv@7:Mpmos@1#source	voltage
	28	M:X:Xosc11_sw@0:Xinv@6:Mpmos@1#drain	voltage
	29	M:X:Xosc11_sw@0:Xinv@6:Mpmos@1#source	voltage
	30	M:X:Xosc11_sw@0:Xinv@5:Mpmos@1#drain	voltage
	31	M:X:Xosc11_sw@0:Xinv@5:Mpmos@1#source	voltage
	32	M:X:Xosc11_sw@0:Xinv@4:Mpmos@1#drain	voltage
	33	M:X:Xosc11_sw@0:Xinv@4:Mpmos@1#source	voltage
	34	M:X:Xosc11_sw@0:Xinv@3:Mpmos@1#drain	voltage
	35	M:X:Xosc11_sw@0:Xinv@3:Mpmos@1#source	voltage
	36	M:X:Xosc11_sw@0:Xinv@2:Mpmos@1#drain	voltage
	37	M:X:Xosc11_sw@0:Xinv@2:Mpmos@1#source	voltage
	38	M:X:Xosc11_sw@0:Xinv@1:Mpmos@1#drain	voltage
	39	M:X:Xosc11_sw@0:Xinv@1:Mpmos@1#source	voltage
	40	M:X:Xosc11_sw@0:Xnand@0:Mnmos@1#drain	voltage
	41	M:X:Xosc11_sw@0:Xnand@0:Mnmos@1#source	voltage
	42	M:X:Xosc11_sw@0:Xnand@0:Mnmos@0#drain	voltage
	43	M:X:Xosc11_sw@0:Xnand@0:Mnmos@0#source	voltage
	44	M:X:Xosc11_sw@0:Xinv@10:Mnmos@0#drain	voltage
	45	M:X:Xosc11_sw@0:Xinv@10:Mnmos@0#source	voltage
	46	M:X:Xosc11_sw@0:Xinv@9:Mnmos@0#drain	voltage
	47	M:X:Xosc11_sw@0:Xinv@9:Mnmos@0#source	voltage
	48	M:X:Xosc11_sw@0:Xinv@8:Mnmos@0#drain	voltage
	49	M:X:Xosc11_sw@0:Xinv@8:Mnmos@0#source	voltage
	50	M:X:Xosc11_sw@0:Xinv@7:Mnmos@0#drain	voltage
	51	M:X:Xosc11_sw@0:Xinv@7:Mnmos@0#source	voltage
	52	M:X:Xosc11_sw@0:Xinv@6:Mnmos@0#drain	voltage
	53	M:X:Xosc11_sw@0:Xinv@6:Mnmos@0#source	voltage
	54	M:X:Xosc11_sw@0:Xinv@5:Mnmos@0#drain	voltage
	55	M:X:Xosc11_sw@0:Xinv@5:Mnmos@0#source	voltage
	56	M:X:Xosc11_sw@0:Xinv@4:Mnmos@0#drain	voltage
	57	M:X:Xosc11_sw@0:Xinv@4:Mnmos@0#source	voltage
	58	M:X:Xosc11_sw@0:Xinv@3:Mnmos@0#drain	voltage
	59	M:X:Xosc11_sw@0:Xinv@3:Mnmos@0#source	voltage
	60	M:X:Xosc11_sw@0:Xinv@2:Mnmos@0#drain	voltage
	61	M:X:Xosc11_sw@0:Xinv@2:Mnmos@0#source	voltage
	62	M:X:Xosc11_sw@0:Xinv@1:Mnmos@0#drain	voltage
	63	M:X:Xosc11_sw@0:Xinv@1:Mnmos@0#source	voltage
	64	vgnd#branch	current
	65	vsupply#branch	current
	66	VPWL@0#branch	current
Values:
0		0.000000000000000e+00
	3.000000000000000e+00
	0.000000000000000e+00
	1.521545677152854e+00
	1.521545677151694e+00
	3.300000000000000e+00
	1.521545677168547e+00
	1.521545676791601e+00
	1.521545668758336e+00
	1.521544776162698e+00
	1.521545718382030e+00
	1.521565366215256e+00
	1.521115391034400e+00
	1.530936273695829e+00
	1.312800619310349e+00
	1.178719663319947e+00
	3.299459637231573e+00
	1.522086039921678e+00
	3.299999990692407e+00
	1.521545686460844e+00
	3.299500730283990e+00
	1.522044988103824e+00
	3.299501329949252e+00
	1.313299289367561e+00
	3.299500722167144e+00
	1.531435551534440e+00
	3.299500730700575e+00
	1.521614660339610e+00
	3.299500730269110e+00
	1.522064635951930e+00
	3.299500730288769e+00
	1.522044045879714e+00
	3.299500730287472e+00
	1.522044938476648e+00
	3.299500730287908e+00
	1.522044946509477e+00
	3.299500730287909e+00
	1.522044946886423e+00
	3.299500730287908e+00
	1.522044946870731e+00
	1.178236172514418e+00
	4.834908046049079e-04
	1.521062186344047e+00
	1.179203154125477e+00
	1.520636884401988e+00
	9.088339710329161e-04
	1.311892876901304e+00
	9.077424012720188e-04
	1.530027424926093e+00
	9.088487606714523e-04
	1.520206557798237e+00
	9.088332271568210e-04
	1.520656532193687e+00
	9.088340125601299e-04
	1.520635942176914e+00
	9.088339767756259e-04
	1.520636834771844e+00
	9.088339774827041e-04
	1.520636842804251e+00
	9.088339783411776e-04
	1.520636843181194e+00
	9.088339783435989e-04
	1.520636843165504e+00
	9.088339783414411e-04
	2.173029970882643e-03
	-2.173029973622566e-03
	-3.000000000000000e-03
1		1.000000000000000e-12
	3.000000000000000e+00
	0.000000000000000e+00
	1.521545677153801e+00
	1.521545677151845e+00
	3.300000000000000e+00
	1.521545677174029e+00
	1.521545676825090e+00
	1.521545668956662e+00
	1.521544776277424e+00
	1.521545719094704e+00
	1.521565366233752e+00
	1.521115391037398e+00
	1.530936273696514e+00
	1.312800619310408e+00
	1.178719663319981e+00
	3.299459637231573e+00
	1.522086039921829e+00
	3.299999990692407e+00
	1.521545686460995e+00
	3.299500730284514e+00
	1.522044988814660e+00
	3.299501329949253e+00
	1.313299289367621e+00
	3.299500722167151e+00
	1.531435551535126e+00
	3.299500730700623e+00
	1.521614660342625e+00
	3.299500730269403e+00
	1.522064635970529e+00
	3.299500730290587e+00
	1.522044045995073e+00
	3.299500730287563e+00
	1.522044938674433e+00
	3.299500730287923e+00
	1.522044946542874e+00
	3.299500730287912e+00
	1.522044946891889e+00
	3.299500730287908e+00
	1.522044946871675e+00
	1.178236172514452e+00
	4.834908046050787e-04
	1.521062186344197e+00
	1.179203154125510e+00
	1.520636885112021e+00
	9.088339717019650e-04
	1.311892876901364e+00
	9.077424012741995e-04
	1.530027424926778e+00
	9.088487606810364e-04
	1.520206557801241e+00
	9.088332272158743e-04
	1.520656532212217e+00
	9.088340129264094e-04
	1.520635942291849e+00
	9.088339790509374e-04
	1.520636834969415e+00
	9.088339775997877e-04
	1.520636842837612e+00
	9.088339783603960e-04
	1.520636843186656e+00
	9.088339783469037e-04
	1.520636843166448e+00
	9.088339783419705e-04
	2.173029972042871e-03
	-2.173029972038347e-03
	-2.999999999999281e-03
2		2.000000000000000e-12
	3.000000000000000e+00
	0.000000000000000e+00
	1.521545677154646e+00
	1.521545677151963e+00
	3.300000000000000e+00
	1.521545677178973e+00
	1.521545676855943e+00
	1.521545669143544e+00
	1.521544776308933e+00
	1.521545719766870e+00
	1.521565366226488e+00
	1.521115391034241e+00
	1.530936273695900e+00
	1.312800619310379e+00
	1.178719663319992e+00
	3.299459637231573e+00
	1.522086039921948e+00
	3.299999990692407e+00
	1.521545686461113e+00
	3.299500730284623e+00
	1.522044989486789e+00
	3.299501329949250e+00
	1.313299289367589e+00
	3.299500722167136e+00
	1.531435551534507e+00
	3.299500730700568e+00
	1.521614660339439e+00
	3.299500730269259e+00
	1.522064635963158e+00
	3.299500730290916e+00
	1.522044046026349e+00
	3.299500730287581e+00
	1.522044938861319e+00
	3.299500730287926e+00
	1.522044946573730e+00
	3.299500730287912e+00
	1.522044946896834e+00
	3.299500730287908e+00
	1.522044946872520e+00
	1.178236172514463e+00
	4.834908046048704e-04
	1.521062186344316e+00
	1.179203154125522e+00
	1.520636885784064e+00
	9.088339719287834e-04
	1.311892876901332e+00
	9.077424012708525e-04
	1.530027424926161e+00
	9.088487606648360e-04
	1.520206557798063e+00
	9.088332271548695e-04
	1.520656532204847e+00
	9.088340127924814e-04
	1.520635942322841e+00
	9.088339797400499e-04
	1.520636835156289e+00
	9.088339776397856e-04
	1.520636842868466e+00
	9.088339783666220e-04
	1.520636843191601e+00
	9.088339783479266e-04
	1.520636843167292e+00
	9.088339783420858e-04
	2.173029972081427e-03
	-2.173029972076362e-03
	-2.999999999999488e-03
3		4.000000000000001e-12
	3.000000000000000e+00
	0.000000000000000e+00
	1.521545677156098e+00
	1.521545677152204e+00
	3.300000000000000e+00
	1.521545677187750e+00
	1.521545676912742e+00
	1.521545669496520e+00
	1.521544776218562e+00
	1.521545721038446e+00
	1.521565366180959e+00
	1.521115391024565e+00
	1.530936273694778e+00
	1.312800619310371e+00
	1.178719663320066e+00
	3.299459637231573e+00
	1.522086039922188e+00
	3.299999990692407e+00
	1.521545686461354e+00
	3.299500730284826e+00
	1.522044990758294e+00
	3.299501329949251e+00
	1.313299289367582e+00
	3.299500722167125e+00
	1.531435551533383e+00
	3.299500730700481e+00
	1.521614660329740e+00
	3.299500730268904e+00
	1.522064635917475e+00
	3.299500730291529e+00
	1.522044045935531e+00
	3.299500730287615e+00
	1.522044939214303e+00
	3.299500730287931e+00
	1.522044946630534e+00
	3.299500730287912e+00
	1.522044946905613e+00
	3.299500730287908e+00
	1.522044946873972e+00
	1.178236172514537e+00
	4.834908046049748e-04
	1.521062186344556e+00
	1.179203154125596e+00
	1.520636887055415e+00
	9.088339723545812e-04
	1.311892876901326e+00
	9.077424012697740e-04
	1.530027424925042e+00
	9.088487606467713e-04
	1.520206557788388e+00
	9.088332270385964e-04
	1.520656532159226e+00
	9.088340123712814e-04
	1.520635942231485e+00
	9.088339810276696e-04
	1.520636835509253e+00
	9.088339777130519e-04
	1.520636842925270e+00
	9.088339783773356e-04
	1.520636843200379e+00
	9.088339783495533e-04
	1.520636843168745e+00
	9.088339783424452e-04
	2.173029972146696e-03
	-2.173029972140980e-03
	-2.999999999999287e-03
4		8.000000000000001e-12
	3.000000000000000e+00
	0.000000000000000e+00
	1.521545677157955e+00
	1.521545677152457e+00
	3.300000000000000e+00
	1.521545677199926e+00
	1.521545677001198e+00
	1.521545670093687e+00
	1.521544775250373e+00
	1.521545723196929e+00
	1.521565366107257e+00
	1.521115391035358e+00
	1.530936273700167e+00
	1.312800619310647e+00
	1.178719663320277e+00
	3.299459637231573e+00
	1.522086039922442e+00
	3.299999990692407e+00
	1.521545686461608e+00
	3.299500730285172e+00
	1.522044992916650e+00
	3.299501329949261e+00
	1.313299289367862e+00
	3.299500722167167e+00
	1.531435551538791e+00
	3.299500730700514e+00
	1.521614660340600e+00
	3.299500730267854e+00
	1.522064635843762e+00
	3.299500730292556e+00
	1.522044044966552e+00
	3.299500730287669e+00
	1.522044939811486e+00
	3.299500730287937e+00
	1.522044946719000e+00
	3.299500730287913e+00
	1.522044946917791e+00
	3.299500730287908e+00
	1.522044946875831e+00
	1.178236172514748e+00
	4.834908046053933e-04
	1.521062186344810e+00
	1.179203154125807e+00
	1.520636889213505e+00
	9.088339730785094e-04
	1.311892876901604e+00
	9.077424012835239e-04
	1.530027424930442e+00
	9.088487606972537e-04
	1.520206557799274e+00
	9.088332270369886e-04
	1.520656532085972e+00
	9.088340107735029e-04
	1.520635941261595e+00
	9.088339831776064e-04
	1.520636836106404e+00
	9.088339778296377e-04
	1.520636843013734e+00
	9.088339783926479e-04
	1.520636843212558e+00
	9.088339783517304e-04
	1.520636843170603e+00
	9.088339783425898e-04
	2.173029972222812e-03
	-2.173029972215577e-03
	-2.999999999999825e-03
5		1.600000000000000e-11
	3.000000000000000e+00
	0.000000000000000e+00
	1.521545677159204e+00
	1.521545677152770e+00
	3.300000000000000e+00
	1.521545677210719e+00
	1.521545677109579e+00
	1.521545670973925e+00
	1.521544771174697e+00
	1.521545726375169e+00
	1.521565367419150e+00
	1.521115390933173e+00
	1.530936273715512e+00
	1.312800619308963e+00
	1.178719663320537e+00
	3.299459637231571e+00
	1.522086039922755e+00
	3.299999990692407e+00
	1.521545686461921e+00
	3.299500730285693e+00
	1.522044996094678e+00
	3.299501329949265e+00
	1.313299289366166e+00
	3.299500722167011e+00
	1.531435551554107e+00
	3.299500730701931e+00
	1.521614660238420e+00
	3.299500730264881e+00
	1.522064637156514e+00
	3.299500730294018e+00
	1.522044040889630e+00
	3.299500730287737e+00
	1.522044940691748e+00
	3.299500730287943e+00
	1.522044946827397e+00
	3.299500730287914e+00
	1.522044946928588e+00
	3.299500730287908e+00
	1.522044946877080e+00
	1.178236172515008e+00
	4.834908046027411e-04
	1.521062186345123e+00
	1.179203154126067e+00
	1.520636892391131e+00
	9.088339741549607e-04
	1.311892876899900e+00
	9.077424012954425e-04
	1.530027424945810e+00
	9.088487604806578e-04
	1.520206557696474e+00
	9.088332291893877e-04
	1.520656533400529e+00
	9.088340056134611e-04
	1.520635937183347e+00
	9.088339862238094e-04
	1.520636836986628e+00
	9.088339779803143e-04
	1.520636843122131e+00
	9.088339784069731e-04
	1.520636843223355e+00
	9.088339783530431e-04
	1.520636843171852e+00
	9.088339783431518e-04
	2.173029972278309e-03
	-2.173029972267199e-03
	-2.999999999999630e-03
6		3.200000000000001e-11
	3.000000000000000e+00
	0.000000000000000e+00
	1.521545677045465e+00
	1.521545677377538e+00
	3.300000000000000e+00
	1.521545677264479e+00
	1.521545677161817e+00
	1.521545672043328e+00
	1.521544759050083e+00
	1.521545730046887e+00
	1.521565380390739e+00
	1.521115382790413e+00
	1.530936278136609e+00
	1.312800618634013e+00
	1.178719663566157e+00
	3.299459637231060e+00
	1.522086040147632e+00
	3.299999990692407e+00
	1.521545686686615e+00
	3.299500730286346e+00
	1.522044999766083e+00
	3.299501329952981e+00
	1.313299288689904e+00
	3.299500722160428e+00
	1.531435555976462e+00
	3.299500730711347e+00
	1.521614652092820e+00
	3.299500730257599e+00
	1.522064650131743e+00
	3.299500730295554e+00
	1.522044028763406e+00
	3.299500730287774e+00
	1.522044941761193e+00
	3.299500730287988e+00
	1.522044946879645e+00
	3.299500730287820e+00
	1.522044946982370e+00
	3.299500730288095e+00
	1.522044946763307e+00
	1.178236172760885e+00
	4.834908039133152e-04
	1.521062186569911e+00
	1.179203154371430e+00
	1.520636896062023e+00
	9.088339754795426e-04
	1.311892876221481e+00
	9.077424073748430e-04
	1.530027429371788e+00
	9.088487495358464e-04
	1.520206549545151e+00
	9.088332454620649e-04
	1.520656546380951e+00
	9.088339921390397e-04
	1.520635925055659e+00
	9.088339893866775e-04
	1.520636838056055e+00
	9.088339780740867e-04
	1.520636843174361e+00
	9.088339784827770e-04
	1.520636843277189e+00
	9.088339781976693e-04
	1.520636843057978e+00
	9.088339786495761e-04
	2.173029972256500e-03
	-2.173029972248838e-03
	-2.999999999778681e-03
7		6.400000000000001e-11
	3.000000000000000e+00
	0.000000000000000e+00
	1.521545645745719e+00
	1.521545705504533e+00
	3.300000000000000e+00
	1.521545711735482e+00
	1.521545639318129e+00
	1.521545714526152e+00
	1.521544782331569e+00
	1.521545687523113e+00
	1.521565393519511e+00
	1.521115336291581e+00
	1.530936357421736e+00
	1.312800589187437e+00
	1.178719688028260e+00
	3.299459637213216e+00
	1.522086068281457e+00
	3.299999990692407e+00
	1.521545714809165e+00
	3.299500730315571e+00
	1.522044957231809e+00
	3.299501330007439e+00
	1.313299259208838e+00
	3.299500722132974e+00
	1.531435635273994e+00
	3.299500730714483e+00
	1.521614605586687e+00
	3.299500730278041e+00
	1.522064663257735e+00
	3.299500730265046e+00
	1.522044052054501e+00
	3.299500730261709e+00
	1.522044984253276e+00
	3.299500730311736e+00
	1.522044909027561e+00
	3.299500730266292e+00
	1.522044981461032e+00
	3.299500730307371e+00
	1.522044915456635e+00
	1.178236197237387e+00
	4.834907783943864e-04
	1.521062214698500e+00
	1.179203178819133e+00
	1.520636853509233e+00
	9.088340266682706e-04
	1.311892846701925e+00
	9.077425029422383e-04
	1.530027508688347e+00
	9.088486990673607e-04
	1.520206503033967e+00
	9.088332542154744e-04
	1.520656559496144e+00
	9.088340257894899e-04
	1.520635948365553e+00
	9.088339363293358e-04
	1.520636880564559e+00
	9.088339325622841e-04
	1.520636805307321e+00
	9.088340199670043e-04
	1.520636877769432e+00
	9.088339405707791e-04
	1.520636811739111e+00
	9.088340123822094e-04
	2.173029973871003e-03
	-2.173029973864157e-03
	-2.999999987762786e-03
8		1.280000000000000e-10
	3.000000000000000e+00
	0.000000000000000e+00
	1.521545762983511e+00
	1.521545595556588e+00
	3.300000000000000e+00
	1.521545591211023e+00
	1.521545754651756e+00
	1.521545622975370e+00
	1.521544844639326e+00
	1.521545720836048e+00
	1.521565224517696e+00
	1.521115587102053e+00
	1.530936008351390e+00
	1.312800710164150e+00
	1.178719591587344e+00
	3.299459637287534e+00
	1.522085958305852e+00
	3.299999990692407e+00
	1.521545604879232e+00
	3.299500730246046e+00
	1.522044990563010e+00
	3.299501329762083e+00
	1.313299380332373e+00
	3.299500722296056e+00
	1.531435286144487e+00
	3.299500730611849e+00
	1.521614856448399e+00
	3.299500730305479e+00
	1.522064494230700e+00
	3.299500730299564e+00
	1.522044114361712e+00
	3.299500730344370e+00
	1.522044892676298e+00
	3.299500730227131e+00
	1.522045024389640e+00
	3.299500730347793e+00
	1.522044860908418e+00
	3.299500730231407e+00
	1.522045032721120e+00
	1.178236100737984e+00
	4.834908842558797e-04
	1.521062104744211e+00
	1.179203082436704e+00
	1.520636886881361e+00
	9.088339079616106e-04
	1.311892967995021e+00
	9.077420759915117e-04
	1.530027159453769e+00
	9.088489890614728e-04
	1.520206753967761e+00
	9.088330670395753e-04
	1.520656390444181e+00
	9.088340818804713e-04
	1.520636010656498e+00
	9.088339911493583e-04
	1.520636788936888e+00
	9.088340756394715e-04
	1.520636920722018e+00
	9.088338728282998e-04
	1.520636757165791e+00
	9.088340826419333e-04
	1.520636929051369e+00
	9.088338797471028e-04
	2.173029967821406e-03
	-2.173029967811838e-03
	-3.000000036679501e-03
9		2.280000000000000e-10
	3.000000000000000e+00
	0.000000000000000e+00
	1.521545527964391e+00
	1.521545826649648e+00
	3.300000000000000e+00
	1.521545812645849e+00
	1.521545578021946e+00
	1.521545705425398e+00
	1.521544576884413e+00
	1.521545792915228e+00
	1.521565682885879e+00
	1.521114990740941e+00
	1.530936792420248e+00
	1.312800446253159e+00
	1.178719795811606e+00
	3.299459637124263e+00
	1.522086189458900e+00
	3.299999990692408e+00
	1.521545835933231e+00
	3.299500730321758e+00
	1.522045062634265e+00
	3.299501330317327e+00
	1.313299116095312e+00
	3.299500721899901e+00
	1.531436070349722e+00
	3.299500730906192e+00
	1.521614259959195e+00
	3.299500730148885e+00
	1.522064952682092e+00
	3.299500730323246e+00
	1.522043846572198e+00
	3.299500730210948e+00
	1.522044975162002e+00
	3.299500730386332e+00
	1.522044847709945e+00
	3.299500730182353e+00
	1.522045082398401e+00
	3.299500730392273e+00
	1.522044797646640e+00
	1.178236305089158e+00
	4.834906521785527e-04
	1.521062335850803e+00
	1.179203286534055e+00
	1.520636958913799e+00
	9.088340312889109e-04
	1.311892703376996e+00
	9.077430396185368e-04
	1.530027943910238e+00
	9.088482895398105e-04
	1.520206157281275e+00
	9.088335936808007e-04
	1.520656849008111e+00
	9.088337932184617e-04
	1.520635742839395e+00
	9.088340456859634e-04
	1.520636871501298e+00
	9.088338478410072e-04
	1.520636743945003e+00
	9.088341480281691e-04
	1.520636978758437e+00
	9.088337951491692e-04
	1.520636693876264e+00
	9.088341600834066e-04
	2.173029980514152e-03
	-2.173029980513042e-03
	-2.999999930331701e-03
10		3.280000000000001e-10
	3.000000000000000e+00
	0.000000000000000e+00
	1.521545917453778e+00
	1.521545415813736e+00
	3.300000000000000e+00
	1.521545491164557e+00
	1.521545762126708e+00
	1.521545745801835e+00
	1.521545257923550e+00
	1.521545447970442e+00
	1.521564698162533e+00
	1.521116185922825e+00
	1.530935282083137e+00
	1.312800939851459e+00
	1.178719428777549e+00
	3.299459637432119e+00
	1.522085778511453e+00
	3.299999990692406e+00
	1.521545425169918e+00
	3.299500730310429e+00
	1.522044717654250e+00
	3.299501329241575e+00
	1.313299610316138e+00
	3.299500722703784e+00
	1.531434559744234e+00
	3.299500730257293e+00
	1.521615455405034e+00
	3.299500730575159e+00
	1.522063967765247e+00
	3.299500730131449e+00
	1.522044527725493e+00
	3.299500730366197e+00
	1.522045015511735e+00
	3.299500730146415e+00
	1.522045031881461e+00
	3.299500730461710e+00
	1.522044760829005e+00
	3.299500730103175e+00
	1.522045187232482e+00
	1.178235937819129e+00
	4.834910886893932e-04
	1.521061924990341e+00
	1.179202919735969e+00
	1.520636613922096e+00
	9.088340309197566e-04
	1.311893198331883e+00
	9.077411763556925e-04
	1.530026432799466e+00
	9.088497034760359e-04
	1.520207353152788e+00
	9.088324426468228e-04
	1.520655863801228e+00
	9.088345615469972e-04
	1.520636424136204e+00
	9.088336866110810e-04
	1.520636911766557e+00
	9.088341055694659e-04
	1.520636928259181e+00
	9.088337373737498e-04
	1.520636657018047e+00
	9.088342782276604e-04
	1.520637083641527e+00
	9.088336576953314e-04
	2.173029957683305e-03
	-2.173029957676412e-03
	-3.000000128601281e-03
11		4.280000000000001e-10
	3.000000000000000e+00
	0.000000000000000e+00
	1.521545330675328e+00
	1.521546105802283e+00
	3.300000000000000e+00
	1.521545871381504e+00
	1.521545718754350e+00
	1.521545319288274e+00
	1.521543712441924e+00
	1.521546434058523e+00
	1.521566720202853e+00
	1.521113853577879e+00
	1.530938117583778e+00
	1.312800047451351e+00
	1.178720055449014e+00
	3.299459636869391e+00
	1.522086468700030e+00
	3.299999990692408e+00
	1.521546115028356e+00
	3.299500730090168e+00
	1.522045703894191e+00
	3.299501331273753e+00
	1.313298716758625e+00
	3.299500721119275e+00
	1.531437395761088e+00
	3.299500731612444e+00
	1.521613122533465e+00
	3.299500729573654e+00
	1.522065990222602e+00
	3.299500730734829e+00
	1.522042981953611e+00
	3.299500730275758e+00
	1.522044588969675e+00
	3.299500730452547e+00
	1.522044988444608e+00
	3.299500730028039e+00
	1.522045141170440e+00
	3.299500730596618e+00
	1.522044600297092e+00
	1.178236564913745e+00
	4.834902934450407e-04
	1.521062615021344e+00
	1.179203545984284e+00
	1.520637600336732e+00
	9.088336084293955e-04
	1.311892303395722e+00
	9.077446888798527e-04
	1.530029269805451e+00
	9.088469248111155e-04
	1.520205019404555e+00
	9.088348332158521e-04
	1.520657886921331e+00
	9.088327765471062e-04
	1.520634877946212e+00
	9.088347814368080e-04
	1.520636485252507e+00
	9.088339773962143e-04
	1.520636884650219e+00
	9.088342511134651e-04
	1.520637037619085e+00
	9.088335342837483e-04
	1.520636496403527e+00
	9.088345115097668e-04
	2.173029996781468e-03
	-2.173029996774023e-03
	-2.999999771683995e-03
12		5.280000000000000e-10
	3.000000000000000e+00
	0.000000000000000e+00
	1.521546086575537e+00
	1.521545035169468e+00
	3.300000000000000e+00
	1.521545630863333e+00
	1.521545227969512e+00
	1.521546718463095e+00
	1.521546995825556e+00
	1.521544055261894e+00
	1.521562711195344e+00
	1.521118281898961e+00
	1.530932961900594e+00
	1.312801590470046e+00
	1.178719057802771e+00
	3.299459637857161e+00
	1.522085397725416e+00
	3.299999990692406e+00
	1.521545044617628e+00
	3.299500730925106e+00
	1.522043324672318e+00
	3.299501327550979e+00
	1.313300261856734e+00
	3.299500724155999e+00
	1.531432239110705e+00
	3.299500728891672e+00
	1.521617551875571e+00
	3.299500731748032e+00
	1.522061980359111e+00
	3.299500729215155e+00
	1.522046265995529e+00
	3.299500730055864e+00
	1.522045988340798e+00
	3.299500730191301e+00
	1.522044497656965e+00
	3.299500730618818e+00
	1.522044900512608e+00
	3.299500729811734e+00
	1.522045356428464e+00
	1.178235566544426e+00
	4.834916830927481e-04
	1.521061544319730e+00
	1.179202549061115e+00
	1.520635220525128e+00
	9.088351347709806e-04
	1.311893851001816e+00
	9.077382701536422e-04
	1.530024111271028e+00
	9.088522360948144e-04
	1.520209450488778e+00
	9.088300527319783e-04
	1.520653875643583e+00
	9.088366253018280e-04
	1.520638163005674e+00
	9.088320613818282e-04
	1.520637884819505e+00
	9.088335333888280e-04
	1.520636393981587e+00
	9.088338416147796e-04
	1.520636796621974e+00
	9.088345328813680e-04
	1.520637253007428e+00
	9.088331624480611e-04
	2.173029934620563e-03
	-2.173029934610937e-03
	-3.000000384859955e-03
13		6.280000000000000e-10
	3.000000000000000e+00
	0.000000000000000e+00
	1.521545416150099e+00
	1.521546503005145e+00
	3.300000000000000e+00
	1.521545153748778e+00
	1.521547171083544e+00
	1.521543115712799e+00
	1.521540334644474e+00
	1.521549305553860e+00
	1.521570411290162e+00
	1.521110129608657e+00
	1.530941965496931e+00
	1.312799076806780e+00
	1.178720488340781e+00
	3.299459636213199e+00
	1.522086866107836e+00
	3.299999990692409e+00
	1.521546512098607e+00
	3.299500728656214e+00
	1.522048575981956e+00
	3.299501334115453e+00
	1.313297744619202e+00
	3.299500718509517e+00
	1.531441244462723e+00
	3.299500734173569e+00
	1.521609397662504e+00
	3.299500727267647e+00
	1.522069682146314e+00
	3.299500732656550e+00
	1.522039603418448e+00
	3.299500731178847e+00
	1.522042384976460e+00
	3.299500730053735e+00
	1.522046441010855e+00
	3.299500730004201e+00
	1.522044423463485e+00
	3.299500730935116e+00
	1.522044685716575e+00
	1.178236998239624e+00
	4.834893846986854e-04
	1.521063012256844e+00
	1.179203978441938e+00
	1.520640473370527e+00
	9.088310567549422e-04
	1.311891329381712e+00
	9.077495524225496e-04
	1.530033120104011e+00
	9.088423869463821e-04
	1.520201292922773e+00
	9.088393027626466e-04
	1.520661580309396e+00
	9.088287332255170e-04
	1.520631498170785e+00
	9.088381718441099e-04
	1.520634280641898e+00
	9.088356069212564e-04
	1.520638337514438e+00
	9.088335052223793e-04
	1.520636319887323e+00
	9.088335339848463e-04
	1.520636581640557e+00
	9.088350712431161e-04
	2.173030022356615e-03
	-2.173030022344115e-03
	-2.999999395996540e-03
14		7.280000000000000e-10
	3.000000000000000e+00
	0.000000000000000e+00
	1.521545167306508e+00
	1.521544940468765e+00
	3.300000000000000e+00
	1.521547766450730e+00
	1.521541788107009e+00
	1.521551393229812e+00
	1.521553349020230e+00
	1.521538370689262e+00
	1.521556092435240e+00
	1.521124597789433e+00
	1.530927045145229e+00
	1.312802835575219e+00
	1.178718796243443e+00
	3.299459638754126e+00
	1.522085302778716e+00
	3.299999990692405e+00
	1.521544950075223e+00
	3.299500734027609e+00
	1.522037638882086e+00
	3.299501323091695e+00
	1.313301509179237e+00
	3.299500728648688e+00
	1.531426321047018e+00
	3.299500724249563e+00
	1.521623869348708e+00
	3.299500736131919e+00
	1.522055360055238e+00
	3.299500725359624e+00
	1.522052620617511e+00
	3.299500727841363e+00
	1.522050664047923e+00
	3.299500731494831e+00
	1.522041057164506e+00
	3.299500730143591e+00
	1.522047036426559e+00
	3.299500729612330e+00
	1.522044437096119e+00
	1.178235304462047e+00
	4.834929038569637e-04
	1.521061449593484e+00
	1.179202288024839e+00
	1.520629532719572e+00
	9.088406221289639e-04
	1.311895101210595e+00
	9.077306883894899e-04
	1.530018190483569e+00
	9.088600178130168e-04
	1.520215770856892e+00
	9.088219765180820e-04
	1.520647252578638e+00
	9.088442876264040e-04
	1.520644520089953e+00
	9.088252870634140e-04
	1.520642561999780e+00
	9.088295803074887e-04
	1.520632952585098e+00
	9.088362069024015e-04
	1.520638932912220e+00
	9.088336220302128e-04
	1.520636333736289e+00
	9.088328808669504e-04
	2.173029924672705e-03
	-2.173029924663910e-03
	-3.000000849479795e-03
15		8.279999999999999e-10
	3.000000000000000e+00
	0.000000000000000e+00
	1.521548498250889e+00
	1.521545423128547e+00
	3.300000000000000e+00
	1.521539846410542e+00
	1.521554692176758e+00
	1.521533664115264e+00
	1.521528796582857e+00
	1.521560158848434e+00
	1.521581781279529e+00
	1.521100063717750e+00
	1.530950032324190e+00
	1.312797970145259e+00
	1.178719895709346e+00
	3.299459635259025e+00
	1.522085786401236e+00
	3.299999990692406e+00
	1.521545432115205e+00
	3.299500722288784e+00
	1.522059431677064e+00
	3.299501340415662e+00
	1.313296635133664e+00
	3.299500711197546e+00
	1.531449313308215e+00
	3.299500742254214e+00
	1.521599329126418e+00
	3.299500719217122e+00
	1.522081054883160e+00
	3.299500740104731e+00
	1.522028062687818e+00
	3.299500736129922e+00
	1.522032931393552e+00
	3.299500726675317e+00
	1.522053963579731e+00
	3.299500731841978e+00
	1.522039115188161e+00
	3.299500730452696e+00
	1.522047768249759e+00
	1.178236405976494e+00
	4.834881430514584e-04
	1.521061932357064e+00
	1.179203385442199e+00
	1.520651333153492e+00
	9.088198460641688e-04
	1.311890215952457e+00
	9.077601421480590e-04
	1.530041193325199e+00
	9.088297904457296e-04
	1.520191219399791e+00
	9.088533083772832e-04
	1.520672958074123e+00
	9.088147071997589e-04
	1.520619952726828e+00
	9.088512125168762e-04
	1.520624823822507e+00
	9.088443849007155e-04
	1.520645862350309e+00
	9.088274543385449e-04
	1.520631010313962e+00
	9.088368929654088e-04
	1.520639664604450e+00
	9.088340958677028e-04
	2.173029965040360e-03
	-2.173029965032331e-03
	-2.999999033140339e-03
16		9.279999999999999e-10
	3.000000000000000e+00
	0.000000000000000e+00
	1.521537075386687e+00
	1.521549275495576e+00
	3.300000000000000e+00
	1.521559744918743e+00
	1.521526235042095e+00
	1.521569749730870e+00
	1.521573474539682e+00
	1.521518380966296e+00
	1.521537614541516e+00
	1.521139228018008e+00
	1.530918476234912e+00
	1.312802441249509e+00
	1.178721931255023e+00
	3.299459639052300e+00
	1.522089638064483e+00
	3.299999990692416e+00
	1.521549284925893e+00
	3.299500746552469e+00
	1.522017644598894e+00
	3.299501315805537e+00
	1.313301117316040e+00
	3.299500739635038e+00
	1.531417749362390e+00
	3.299500710882543e+00
	1.521638503712643e+00
	3.299500750355230e+00
	1.522036877483139e+00
	3.299500711482835e+00
	1.522072750950322e+00
	3.299500717432730e+00
	1.522069024544397e+00
	3.299500739315804e+00
	1.522025500895955e+00
	3.299500725057234e+00
	1.522059017186038e+00
	3.299500732115424e+00
	1.522036343805721e+00
	1.178238439998005e+00
	4.834930983846887e-04
	1.521065784798018e+00
	1.179205422512042e+00
	1.520609530474825e+00
	9.088625896692886e-04
	1.311894713560276e+00
	9.077187583405288e-04
	1.530009612358770e+00
	9.088787835908066e-04
	1.520230413356165e+00
	9.087989232558610e-04
	1.520628761209196e+00
	9.088689780100352e-04
	1.520664659126824e+00
	9.088010724102741e-04
	1.520660929213191e+00
	9.088112183042393e-04
	1.520617391171640e+00
	9.088501065152355e-04
	1.520650917118204e+00
	9.088244776513007e-04
	1.520628238632513e+00
	9.088375030860326e-04
	2.173030174027797e-03
	-2.173030174018916e-03
	-3.000000515549726e-03
17		1.028000000000000e-09
	3.000000000000000e+00
	0.000000000000000e+00
	1.521567395974231e+00
	1.521533253501343e+00
	3.300000000000000e+00
	1.521514485197764e+00
	1.521585456962159e+00
	1.521499328002385e+00
	1.521495401704714e+00
	1.521595563443992e+00
	1.521609534979124e+00
	1.521082026802955e+00
	1.530952702940845e+00
	1.312803426520021e+00
	1.178710415314800e+00
	3.299459637597771e+00
	1.522073615200179e+00
	3.299999990692376e+00
	1.521533263526497e+00
	3.299500698579873e+00
	1.522094844621154e+00
	3.299501344716215e+00
	1.313302092574885e+00
	3.299500696744939e+00
	1.531451986939001e+00