Title: *** SPICE deck for cell osc11{lay} from library lab2
Date: Tue Mar 03 15:43:55  2020
Plotname: Transient Analysis
Flags: real
No. Variables: 60
No. Points: 1008    
Command: version 1.06.00
Variables:
	0	time	time
	1	net@20	voltage
	2	ring_out	voltage
	3	gnd	voltage
	4	vdd	voltage
	5	net@21	voltage
	6	net@22	voltage
	7	net@23	voltage
	8	net@24	voltage
	9	net@25	voltage
	10	net@26	voltage
	11	net@27	voltage
	12	net@28	voltage
	13	net@29	voltage
	14	M:XGavininv@10:Mpmos@1#drain	voltage
	15	M:XGavininv@10:Mpmos@1#source	voltage
	16	M:XGavininv@9:Mpmos@1#drain	voltage
	17	M:XGavininv@9:Mpmos@1#source	voltage
	18	M:XGavininv@8:Mpmos@1#drain	voltage
	19	M:XGavininv@8:Mpmos@1#source	voltage
	20	M:XGavininv@7:Mpmos@1#drain	voltage
	21	M:XGavininv@7:Mpmos@1#source	voltage
	22	M:XGavininv@6:Mpmos@1#drain	voltage
	23	M:XGavininv@6:Mpmos@1#source	voltage
	24	M:XGavininv@5:Mpmos@1#drain	voltage
	25	M:XGavininv@5:Mpmos@1#source	voltage
	26	M:XGavininv@4:Mpmos@1#drain	voltage
	27	M:XGavininv@4:Mpmos@1#source	voltage
	28	M:XGavininv@3:Mpmos@1#drain	voltage
	29	M:XGavininv@3:Mpmos@1#source	voltage
	30	M:XGavininv@2:Mpmos@1#drain	voltage
	31	M:XGavininv@2:Mpmos@1#source	voltage
	32	M:XGavininv@1:Mpmos@1#drain	voltage
	33	M:XGavininv@1:Mpmos@1#source	voltage
	34	M:XGavininv@0:Mpmos@1#drain	voltage
	35	M:XGavininv@0:Mpmos@1#source	voltage
	36	M:XGavininv@10:Mnmos@0#drain	voltage
	37	M:XGavininv@10:Mnmos@0#source	voltage
	38	M:XGavininv@9:Mnmos@0#drain	voltage
	39	M:XGavininv@9:Mnmos@0#source	voltage
	40	M:XGavininv@8:Mnmos@0#drain	voltage
	41	M:XGavininv@8:Mnmos@0#source	voltage
	42	M:XGavininv@7:Mnmos@0#drain	voltage
	43	M:XGavininv@7:Mnmos@0#source	voltage
	44	M:XGavininv@6:Mnmos@0#drain	voltage
	45	M:XGavininv@6:Mnmos@0#source	voltage
	46	M:XGavininv@5:Mnmos@0#drain	voltage
	47	M:XGavininv@5:Mnmos@0#source	voltage
	48	M:XGavininv@4:Mnmos@0#drain	voltage
	49	M:XGavininv@4:Mnmos@0#source	voltage
	50	M:XGavininv@3:Mnmos@0#drain	voltage
	51	M:XGavininv@3:Mnmos@0#source	voltage
	52	M:XGavininv@2:Mnmos@0#drain	voltage
	53	M:XGavininv@2:Mnmos@0#source	voltage
	54	M:XGavininv@1:Mnmos@0#drain	voltage
	55	M:XGavininv@1:Mnmos@0#source	voltage
	56	M:XGavininv@0:Mnmos@0#drain	voltage
	57	M:XGavininv@0:Mnmos@0#source	voltage
	58	vgnd#branch	current
	59	vsupply#branch	current
Values:
0		0.000000000000000e+00
	1.521545677152071e+00
	1.521545677151935e+00
	0.000000000000000e+00
	3.300000000000000e+00
	1.521545677150505e+00
	1.521545677184589e+00
	1.521545676693222e+00
	1.521545677151932e+00
	1.521545677151940e+00
	1.521545677151876e+00
	1.521545677153202e+00
	1.521545677084617e+00
	1.521545677151931e+00
	1.522044946869811e+00
	3.299500730287908e+00
	1.522044946869848e+00
	3.299500730287868e+00
	1.522044946802495e+00
	3.299500730287907e+00
	1.522044946871078e+00
	3.299500730287908e+00
	1.522044946869753e+00
	3.299500730287908e+00
	1.522044946869816e+00
	3.299500730287908e+00
	1.522044946870082e+00
	3.299500730287634e+00
	1.522044946411091e+00
	3.299500730287915e+00
	1.522044946902465e+00
	3.299500730287909e+00
	1.522044946868382e+00
	3.299500730287908e+00
	1.522044946869947e+00
	3.299500730287908e+00
	1.520636843164584e+00
	9.088339783416597e-04
	1.520636843164658e+00
	9.088339782653090e-04
	1.520636843097269e+00
	9.088339783394901e-04
	1.520636843165851e+00
	9.088339783416665e-04
	1.520636843164526e+00
	9.088339783416671e-04
	1.520636843164589e+00
	9.088339783416615e-04
	1.520636843165102e+00
	9.088339778213692e-04
	1.520636842705859e+00
	9.088339783540947e-04
	1.520636843197238e+00
	9.088339783417939e-04
	1.520636843163155e+00
	9.088339783417425e-04
	1.520636843164720e+00
	9.088339783416710e-04
	1.705400246751382e-03
	-1.705400246941283e-03
1		1.000000000000000e-13
	1.521545677152095e+00
	1.521545677152045e+00
	0.000000000000000e+00
	3.300000000000000e+00
	1.521545677150515e+00
	1.521545677184641e+00
	1.521545676693619e+00
	1.521545677155811e+00
	1.521545677152679e+00
	1.521545677152020e+00
	1.521545677153245e+00
	1.521545677084715e+00
	1.521545677152510e+00
	1.522044946869927e+00
	3.299500730287919e+00
	1.522044946870405e+00
	3.299500730287870e+00
	1.522044946802590e+00
	3.299500730287908e+00
	1.522044946871122e+00
	3.299500730287911e+00
	1.522044946869904e+00
	3.299500730287921e+00
	1.522044946870595e+00
	3.299500730287979e+00
	1.522044946873808e+00
	3.299500730287642e+00
	1.522044946411473e+00
	3.299500730287916e+00
	1.522044946902515e+00
	3.299500730287909e+00
	1.522044946868392e+00
	3.299500730287909e+00
	1.522044946869972e+00
	3.299500730287911e+00
	1.520636843164696e+00
	9.088339783526872e-04
	1.520636843165194e+00
	9.088339782672015e-04
	1.520636843097360e+00
	9.088339783403253e-04
	1.520636843165894e+00
	9.088339783444024e-04
	1.520636843164672e+00
	9.088339783557415e-04
	1.520636843165341e+00
	9.088339784155234e-04
	1.520636843168692e+00
	9.088339778290913e-04
	1.520636842706227e+00
	9.088339783550955e-04
	1.520636843197286e+00
	9.088339783419767e-04
	1.520636843163164e+00
	9.088339783421847e-04
	1.520636843164745e+00
	9.088339783437522e-04
	1.705400246845447e-03
	-1.705400246834543e-03
2		2.000000000000000e-13
	1.521545677152117e+00
	1.521545677152150e+00
	0.000000000000000e+00
	3.300000000000000e+00
	1.521545677150525e+00
	1.521545677184691e+00
	1.521545676694007e+00
	1.521545677159535e+00
	1.521545677153374e+00
	1.521545677152154e+00
	1.521545677153287e+00
	1.521545677084811e+00
	1.521545677153065e+00
	1.522044946870032e+00
	3.299500730287920e+00
	1.522044946870959e+00
	3.299500730287870e+00
	1.522044946802685e+00
	3.299500730287907e+00
	1.522044946871165e+00
	3.299500730287911e+00
	1.522044946870038e+00
	3.299500730287923e+00
	1.522044946871289e+00
	3.299500730287985e+00
	1.522044946877532e+00
	3.299500730287643e+00
	1.522044946411860e+00
	3.299500730287917e+00
	1.522044946902565e+00
	3.299500730287909e+00
	1.522044946868401e+00
	3.299500730287908e+00
	1.522044946869995e+00
	3.299500730287911e+00
	1.520636843164801e+00
	9.088339783542135e-04
	1.520636843165747e+00
	9.088339782674906e-04
	1.520636843097456e+00
	9.088339783404364e-04
	1.520636843165936e+00
	9.088339783447230e-04
	1.520636843164806e+00
	9.088339783574537e-04
	1.520636843166036e+00
	9.088339784258417e-04
	1.520636843172405e+00
	9.088339778304329e-04
	1.520636842706613e+00
	9.088339783552644e-04
	1.520636843197336e+00
	9.088339783420232e-04
	1.520636843163174e+00
	9.088339783422595e-04
	1.520636843164767e+00
	9.088339783440534e-04
	1.705400246846903e-03
	-1.705400246837281e-03
3		4.000000000000000e-13
	1.521545677152157e+00
	1.521545677152348e+00
	0.000000000000000e+00
	3.300000000000000e+00
	1.521545677150543e+00
	1.521545677184793e+00
	1.521545676694777e+00
	1.521545677166960e+00
	1.521545677154700e+00
	1.521545677152396e+00
	1.521545677153363e+00
	1.521545677084995e+00
	1.521545677154168e+00
	1.522044946870230e+00
	3.299500730287921e+00
	1.522044946872063e+00
	3.299500730287870e+00
	1.522044946802869e+00
	3.299500730287908e+00
	1.522044946871240e+00
	3.299500730287911e+00
	1.522044946870279e+00
	3.299500730287922e+00
	1.522044946872613e+00
	3.299500730287990e+00
	1.522044946884956e+00
	3.299500730287644e+00
	1.522044946412631e+00
	3.299500730287917e+00
	1.522044946902668e+00
	3.299500730287909e+00
	1.522044946868419e+00
	3.299500730287908e+00
	1.522044946870035e+00
	3.299500730287911e+00
	1.520636843164999e+00
	9.088339783556179e-04
	1.520636843166850e+00
	9.088339782677387e-04
	1.520636843097640e+00
	9.088339783403866e-04
	1.520636843166012e+00
	9.088339783445612e-04
	1.520636843165047e+00
	9.088339783579956e-04
	1.520636843167357e+00
	9.088339784354637e-04
	1.520636843179829e+00
	9.088339778318212e-04
	1.520636842707384e+00
	9.088339783554874e-04
	1.520636843197438e+00
	9.088339783420343e-04
	1.520636843163192e+00
	9.088339783421997e-04
	1.520636843164807e+00
	9.088339783441581e-04
	1.705400246847080e-03
	-1.705400246839637e-03
4		8.000000000000000e-13
	1.521545677152211e+00
	1.521545677152681e+00
	0.000000000000000e+00
	3.300000000000000e+00
	1.521545677150573e+00
	1.521545677184998e+00
	1.521545676696301e+00
	1.521545677181696e+00
	1.521545677156961e+00
	1.521545677152736e+00
	1.521545677153455e+00
	1.521545677085344e+00
	1.521545677156348e+00
	1.522044946870562e+00
	3.299500730287921e+00
	1.522044946874242e+00
	3.299500730287870e+00
	1.522044946803218e+00
	3.299500730287908e+00
	1.522044946871331e+00
	3.299500730287910e+00
	1.522044946870617e+00
	3.299500730287921e+00
	1.522044946874870e+00
	3.299500730287997e+00
	1.522044946899692e+00
	3.299500730287644e+00
	1.522044946414155e+00
	3.299500730287917e+00
	1.522044946902873e+00
	3.299500730287908e+00
	1.522044946868449e+00
	3.299500730287908e+00
	1.522044946870088e+00
	3.299500730287910e+00
	1.520636843165331e+00
	9.088339783576673e-04
	1.520636843169030e+00
	9.088339782680819e-04
	1.520636843097989e+00
	9.088339783400530e-04
	1.520636843166104e+00
	9.088339783439269e-04
	1.520636843165385e+00
	9.088339783576483e-04
	1.520636843169612e+00
	9.088339784503358e-04
	1.520636843194566e+00
	9.088339778341029e-04
	1.520636842708908e+00
	9.088339783557642e-04
	1.520636843197644e+00
	9.088339783420438e-04
	1.520636843163222e+00
	9.088339783421386e-04
	1.520636843164860e+00
	9.088339783439825e-04
	1.705400246846819e-03
	-1.705400246842587e-03
5		1.600000000000000e-12
	1.521545677152242e+00
	1.521545677153117e+00
	0.000000000000000e+00
	3.300000000000000e+00
	1.521545677150615e+00
	1.521545677185369e+00
	1.521545676699262e+00
	1.521545677210742e+00
	1.521545677159954e+00
	1.521545677152923e+00
	1.521545677153499e+00
	1.521545677085987e+00
	1.521545677160615e+00
	1.522044946870997e+00
	3.299500730287924e+00
	1.522044946878509e+00
	3.299500730287871e+00
	1.522044946803861e+00
	3.299500730287907e+00
	1.522044946871375e+00
	3.299500730287908e+00
	1.522044946870800e+00
	3.299500730287918e+00
	1.522044946877855e+00
	3.299500730288014e+00
	1.522044946928738e+00
	3.299500730287647e+00
	1.522044946417116e+00
	3.299500730287916e+00
	1.522044946903243e+00
	3.299500730287908e+00
	1.522044946868491e+00
	3.299500730287908e+00
	1.522044946870119e+00
	3.299500730287909e+00
	1.520636843165765e+00
	9.088339783624997e-04
	1.520636843173297e+00
	9.088339782688715e-04
	1.520636843098632e+00
	9.088339783398957e-04
	1.520636843166148e+00
	9.088339783426204e-04
	1.520636843165570e+00
	9.088339783561011e-04
	1.520636843172592e+00
	9.088339784830944e-04
	1.520636843223612e+00
	9.088339778387916e-04
	1.520636842711869e+00
	9.088339783561594e-04
	1.520636843198015e+00
	9.088339783420208e-04
	1.520636843163264e+00
	9.088339783418858e-04
	1.520636843164892e+00
	9.088339783438285e-04
	1.705400246847111e-03
	-1.705400246840480e-03
6		3.200000000000000e-12
	1.521545677152083e+00
	1.521545677153120e+00
	0.000000000000000e+00
	3.300000000000000e+00
	1.521545677150628e+00
	1.521545677186005e+00
	1.521545676704866e+00
	1.521545677267274e+00
	1.521545677160106e+00
	1.521545677151918e+00
	1.521545677153392e+00
	1.521545677087191e+00
	1.521545677168874e+00
	1.522044946870997e+00
	3.299500730287928e+00
	1.522044946886769e+00
	3.299500730287872e+00
	1.522044946805065e+00
	3.299500730287907e+00
	1.522044946871266e+00
	3.299500730287906e+00
	1.522044946869790e+00
	3.299500730287909e+00
	1.522044946877991e+00
	3.299500730288045e+00
	1.522044946985270e+00
	3.299500730287651e+00
	1.522044946422720e+00
	3.299500730287916e+00
	1.522044946903879e+00
	3.299500730287908e+00
	1.522044946868504e+00
	3.299500730287908e+00
	1.522044946869959e+00
	3.299500730287908e+00
	1.520636843165763e+00
	9.088339783712076e-04
	1.520636843181556e+00
	9.088339782706633e-04
	1.520636843099836e+00
	9.088339783395848e-04
	1.520636843166040e+00
	9.088339783394321e-04
	1.520636843164563e+00
	9.088339783462141e-04
	1.520636843172715e+00
	9.088339785436174e-04
	1.520636843280145e+00
	9.088339778476047e-04
	1.520636842717474e+00
	9.088339783570830e-04
	1.520636843198651e+00
	9.088339783419780e-04
	1.520636843163278e+00
	9.088339783414131e-04
	1.520636843164732e+00
	9.088339783422457e-04
	1.705400246847658e-03
	-1.705400246840290e-03
7		6.400000000000000e-12
	1.521545677151576e+00
	1.521545677149990e+00
	0.000000000000000e+00
	3.300000000000000e+00
	1.521545677150677e+00
	1.521545677187173e+00
	1.521545676715082e+00
	1.521545677374548e+00
	1.521545677138875e+00
	1.521545677148392e+00
	1.521545677153459e+00
	1.521545677089549e+00
	1.521545677184472e+00
	1.522044946867864e+00
	3.299500730287936e+00
	1.522044946902366e+00
	3.299500730287873e+00
	1.522044946807423e+00
	3.299500730287908e+00
	1.522044946871334e+00
	3.299500730287904e+00
	1.522044946866259e+00
	3.299500730287878e+00
	1.522044946856729e+00
	3.299500730288104e+00
	1.522044947092545e+00
	3.299500730287659e+00
	1.522044946432937e+00
	3.299500730287918e+00
	1.522044946905047e+00
	3.299500730287909e+00
	1.522044946868553e+00
	3.299500730287908e+00
	1.522044946869451e+00
	3.299500730287904e+00
	1.520636843162626e+00
	9.088339783881978e-04
	1.520636843197153e+00
	9.088339782741316e-04
	1.520636843102194e+00
	9.088339783403866e-04
	1.520636843166109e+00
	9.088339783355002e-04
	1.520636843161043e+00
	9.088339783043306e-04
	1.520636843151431e+00
	9.088339786603309e-04
	1.520636843387420e+00
	9.088339778642535e-04
	1.520636842727691e+00
	9.088339783589293e-04
	1.520636843199819e+00
	9.088339783422180e-04
	1.520636843163327e+00
	9.088339783408892e-04
	1.520636843164226e+00
	9.088339783362182e-04
	1.705400246849496e-03
	-1.705400246839999e-03
8		1.280000000000000e-11
	1.521545677153416e+00
	1.521545677132865e+00
	0.000000000000000e+00
	3.300000000000000e+00
	1.521545677150932e+00
	1.521545677189015e+00
	1.521545676731758e+00
	1.521545677568770e+00
	1.521545677021625e+00
	1.521545677161004e+00
	1.521545677155012e+00
	1.521545677093594e+00
	1.521545677212116e+00
	1.522044946850730e+00
	3.299500730287952e+00
	1.522044946930009e+00
	3.299500730287876e+00
	1.522044946811469e+00
	3.299500730287909e+00
	1.522044946872891e+00
	3.299500730287923e+00
	1.522044946878886e+00
	3.299500730287781e+00
	1.522044946739423e+00
	3.299500730288209e+00
	1.522044947286768e+00
	3.299500730287673e+00
	1.522044946449614e+00
	3.299500730287919e+00
	1.522044946906890e+00
	3.299500730287909e+00
	1.522044946868808e+00
	3.299500730287911e+00
	1.522044946871293e+00
	3.299500730287889e+00
	1.520636843145486e+00
	9.088339784169028e-04
	1.520636843224797e+00
	9.088339782798183e-04
	1.520636843106240e+00
	9.088339783426753e-04
	1.520636843167659e+00
	9.088339783623675e-04
	1.520636843173706e+00
	9.088339781416642e-04
	1.520636843034080e+00
	9.088339788651784e-04
	1.520636843581645e+00
	9.088339778918860e-04
	1.520636842744370e+00
	9.088339783616269e-04
	1.520636843201661e+00
	9.088339783425878e-04
	1.520636843163581e+00
	9.088339783447633e-04
	1.520636843166074e+00
	9.088339783123752e-04
	1.705400246849943e-03
	-1.705400246842475e-03
9		2.280000000000000e-11
	1.521545677176297e+00
	1.521545677083866e+00
	0.000000000000000e+00
	3.300000000000000e+00
	1.521545677145670e+00
	1.521545677191656e+00
	1.521545676749767e+00
	1.521545677828906e+00
	1.521545676678979e+00
	1.521545677319791e+00
	1.521545677119362e+00
	1.521545677104160e+00
	1.521545677246405e+00
	1.522044946801720e+00
	3.299500730287969e+00
	1.522044946964298e+00
	3.299500730287885e+00
	1.522044946822035e+00
	3.299500730287873e+00
	1.522044946837223e+00
	3.299500730288059e+00
	1.522044947037746e+00
	3.299500730287547e+00
	1.522044946396696e+00
	3.299500730288345e+00
	1.522044947546905e+00
	3.299500730287689e+00
	1.522044946467625e+00
	3.299500730287921e+00
	1.522044946909532e+00
	3.299500730287903e+00
	1.522044946863544e+00
	3.299500730287931e+00
	1.522044946894185e+00
	3.299500730287857e+00
	1.520636843096468e+00
	9.088339784512497e-04
	1.520636843259082e+00
	9.088339782957617e-04
	1.520636843116820e+00
	9.088339782869247e-04
	1.520636843131940e+00
	9.088339785850690e-04
	1.520636843332659e+00
	9.088339777264090e-04
	1.520636842691289e+00
	9.088339791332778e-04
	1.520636843841782e+00
	9.088339779246781e-04
	1.520636842762382e+00
	9.088339783657793e-04
	1.520636843204306e+00
	9.088339783344628e-04
	1.520636843158309e+00
	9.088339783768546e-04
	1.520636843188978e+00
	9.088339782534121e-04
	1.705400246850922e-03
	-1.705400246841217e-03
10		3.280000000000000e-11
	1.521545677235983e+00
	1.521545677019127e+00
	0.000000000000000e+00
	3.300000000000000e+00
	1.521545677117174e+00
	1.521545677201505e+00
	1.521545676759009e+00
	1.521545678049914e+00
	1.521545676189804e+00
	1.521545677741900e+00
	1.521545676921364e+00
	1.521545677169276e+00
	1.521545677259268e+00
	1.522044946736972e+00
	3.299500730287967e+00
	1.522044946977155e+00
	3.299500730287943e+00
	1.522044946887177e+00
	3.299500730287709e+00
	1.522044946639147e+00
	3.299500730288366e+00
	1.522044947459977e+00
	3.299500730287242e+00
	1.522044945907448e+00
	3.299500730288458e+00
	1.522044947767913e+00
	3.299500730287699e+00
	1.522044946476867e+00
	3.299500730287930e+00
	1.522044946919385e+00
	3.299500730287880e+00
	1.522044946835038e+00
	3.299500730287974e+00
	1.522044946953888e+00
	3.299500730287817e+00
	1.520636843031719e+00
	9.088339784555178e-04
	1.520636843271919e+00
	9.088339783905193e-04
	1.520636843182025e+00
	9.088339780152151e-04
	1.520636842933742e+00
	9.088339791167215e-04
	1.520636843755018e+00
	9.088339771691113e-04
	1.520636842201983e+00
	9.088339793502921e-04
	1.520636844062793e+00
	9.088339779450240e-04
	1.520636842771623e+00
	9.088339783802075e-04
	1.520636843214169e+00
	9.088339782954527e-04
	1.520636843129786e+00
	9.088339784517027e-04
	1.520636843248698e+00
	9.088339781813217e-04
	1.705400246851313e-03
	-1.705400246842639e-03
11		4.280000000000000e-11
	1.521545677334407e+00
	1.521545676967937e+00
	0.000000000000000e+00
	3.300000000000000e+00
	1.521545677040476e+00
	1.521545677239713e+00
	1.521545676752075e+00
	1.521545678246321e+00
	1.521545675595224e+00
	1.521545678498643e+00
	1.521545676370888e+00
	1.521545677438491e+00
	1.521545677185428e+00
	1.522044946685785e+00
	3.299500730287895e+00
	1.522044946903278e+00
	3.299500730288162e+00
	1.522044947156489e+00
	3.299500730287297e+00
	1.522044946088503e+00
	3.299500730288873e+00
	1.522044948216882e+00
	3.299500730286891e+00
	1.522044945312802e+00
	3.299500730288556e+00
	1.522044947964322e+00
	3.299500730287695e+00
	1.522044946469930e+00
	3.299500730287962e+00
	1.522044946957607e+00
	3.299500730287823e+00
	1.522044946758315e+00
	3.299500730288036e+00
	1.522044947052332e+00
	3.299500730287797e+00
	1.520636842980557e+00
	9.088339783403647e-04
	1.520636843197958e+00
	9.088339787553220e-04
	1.520636843451499e+00
	9.088339773113840e-04
	1.520636842382890e+00
	9.088339800193760e-04
	1.520636844512079e+00
	9.088339765170321e-04
	1.520636841607283e+00
	9.088339795385262e-04
	1.520636844259206e+00
	9.088339779430699e-04
	1.520636842764674e+00
	9.088339784320315e-04
	1.520636843252413e+00
	9.088339781979612e-04
	1.520636843053037e+00
	9.088339785664592e-04
	1.520636843347153e+00
	9.088339781359164e-04
	1.705400246851386e-03
	-1.705400246840923e-03
12		5.279999999999999e-11
	1.521545677439714e+00
	1.521545677027985e+00
	0.000000000000000e+00
	3.300000000000000e+00
	1.521545676898054e+00
	1.521545677342315e+00
	1.521545676703715e+00
	1.521545678438596e+00
	1.521545674918308e+00
	1.521545679627893e+00
	1.521545675252241e+00
	1.521545678190193e+00
	1.521545676832273e+00
	1.522044946745879e+00
	3.299500730287605e+00
	1.522044946549994e+00
	3.299500730288729e+00
	1.522044947908422e+00
	3.299500730286518e+00
	1.522044944969581e+00
	3.299500730289593e+00
	1.522044949346325e+00
	3.299500730286502e+00
	1.522044944635823e+00
	3.299500730288654e+00
	1.522044948156605e+00
	3.299500730287660e+00
	1.522044946421552e+00
	3.299500730288038e+00
	1.522044947060240e+00
	3.299500730287727e+00
	1.522044946615861e+00
	3.299500730288091e+00
	1.522044947157646e+00
	3.299500730287872e+00
	1.520636843040761e+00
	9.088339778572370e-04
	1.520636842844451e+00
	9.088339797233784e-04
	1.520636844203748e+00
	9.088339759437006e-04
	1.520636841263663e+00
	9.088339813193408e-04
	1.520636845641703e+00
	9.088339757941833e-04
	1.520636840930249e+00
	9.088339797212710e-04
	1.520636844451506e+00
	9.088339778861887e-04
	1.520636842716268e+00
	9.088339785633563e-04
	1.520636843355086e+00
	9.088339780274950e-04
	1.520636842910558e+00
	9.088339786739102e-04
	1.520636843452443e+00
	9.088339782478318e-04
	1.705400246851571e-03
	-1.705400246841998e-03
13		6.279999999999999e-11
	1.521545677419736e+00
	1.521545677467366e+00
	0.000000000000000e+00
	3.300000000000000e+00
	1.521545676716221e+00
	1.521545677546239e+00
	1.521545676564352e+00
	1.521545678667872e+00
	1.521545674160187e+00
	1.521545681152380e+00
	1.521545673347101e+00
	1.521545679832391e+00
	1.521545675798251e+00
	1.522044947185432e+00
	3.299500730286816e+00
	1.522044945515648e+00
	3.299500730289902e+00
	1.522044949551052e+00
	3.299500730285250e+00
	1.522044943064047e+00
	3.299500730290531e+00
	1.522044950871032e+00
	3.299500730286073e+00
	1.522044943877636e+00
	3.299500730288785e+00
	1.522044948385906e+00
	3.299500730287559e+00
	1.522044946282147e+00
	3.299500730288179e+00
	1.522044947264215e+00
	3.299500730287622e+00
	1.522044946434003e+00
	3.299500730288031e+00
	1.522044947137619e+00
	3.299500730288244e+00
	1.520636843480622e+00
	9.088339765146623e-04
	1.520636841809634e+00
	9.088339817613928e-04
	1.520636845846903e+00
	9.088339736873036e-04
	1.520636839357719e+00
	9.088339830295381e-04
	1.520636847166615e+00
	9.088339749982593e-04
	1.520636840171995e+00
	9.088339799548559e-04
	1.520636844680849e+00
	9.088339777154546e-04
	1.520636842576806e+00
	9.088339788112088e-04
	1.520636843559107e+00
	9.088339778303790e-04
	1.520636842728716e+00
	9.088339785945980e-04
	1.520636843432276e+00
	9.088339788623733e-04
	1.705400246851609e-03
	-1.705400246844165e-03
14		7.280000000000000e-11
	1.521545676899585e+00
	1.521545678873599e+00
	0.000000000000000e+00
	3.300000000000000e+00
	1.521545676660830e+00
	1.521545677839112e+00
	1.521545676271568e+00
	1.521545679009639e+00
	1.521545673284738e+00
	1.521545683100128e+00
	1.521545670440763e+00
	1.521545682889940e+00
	1.521545673401650e+00
	1.522044948592119e+00
	3.299500730285075e+00
	1.522044943118391e+00
	3.299500730291994e+00
	1.522044952609300e+00
	3.299500730283382e+00
	1.522044940157189e+00
	3.299500730291702e+00
	1.522044952819031e+00
	3.299500730285573e+00
	1.522044943002101e+00
	3.299500730288996e+00
	1.522044948727733e+00
	3.299500730287356e+00
	1.522044945989288e+00
	3.299500730288357e+00
	1.522044947557138e+00
	3.299500730287648e+00
	1.522044946378659e+00
	3.299500730287568e+00
	1.522044946617243e+00
	3.299500730289336e+00
	1.520636844888004e+00
	9.088339735063432e-04
	1.520636839411520e+00
	9.088339854506856e-04
	1.520636848905946e+00
	9.088339703273813e-04
	1.520636836450335e+00
	9.088339851735438e-04
	1.520636849114857e+00
	9.088339740793360e-04
	1.520636839296359e+00
	9.088339803274778e-04
	1.520636845022760e+00
	9.088339773637303e-04
	1.520636842283871e+00
	9.088339791402352e-04
	1.520636843852030e+00
	9.088339778367450e-04
	1.520636842673542e+00
	9.088339778436674e-04
	1.520636842911477e+00
	9.088339807085162e-04
	1.705400246851191e-03
	-1.705400246841980e-03
15		8.280000000000000e-11
	1.521545675018752e+00
	1.521545682336340e+00
	0.000000000000000e+00
	3.300000000000000e+00
	1.521545677245660e+00
	1.521545678023578e+00
	1.521545675812739e+00
	1.521545679568054e+00
	1.521545672198860e+00
	1.521545685535803e+00
	1.521545666311168e+00
	1.521545687993322e+00
	1.521545668626836e+00
	1.522044952055844e+00
	3.299500730281738e+00
	1.522044938342413e+00
	3.299500730295377e+00
	1.522044957713715e+00
	3.299500730280792e+00
	1.522044936026933e+00
	3.299500730293149e+00
	1.522044955255005e+00
	3.299500730284938e+00
	1.522044941916090e+00
	3.299500730289354e+00
	1.522044949286261e+00
	3.299500730287069e+00
	1.522044945530370e+00
	3.299500730288402e+00
	1.522044947741571e+00
	3.299500730288201e+00
	1.522044946963772e+00
	3.299500730286081e+00
	1.522044944735777e+00
	3.299500730291888e+00
	1.520636848353085e+00
	9.088339676662217e-04
	1.520636834634126e+00
	9.088339914727631e-04
	1.520636854011488e+00
	9.088339656422803e-04
	1.520636832319415e+00
	9.088339878244962e-04
	1.520636851551135e+00
	9.088339729223609e-04
	1.520636838210189e+00
	9.088339809595377e-04
	1.520636845581408e+00
	9.088339768430234e-04
	1.520636841824921e+00
	9.088339792681021e-04
	1.520636844036264e+00
	9.088339787186871e-04
	1.520636843259228e+00
	9.088339753420614e-04
	1.520636841028999e+00
	9.088339850993562e-04
	1.705400246851443e-03
	-1.705400246844248e-03
16		9.280000000000001e-11
	1.521545670074338e+00
	1.521545689649211e+00
	0.000000000000000e+00
	3.300000000000000e+00
	1.521545679719843e+00
	1.521545677408935e+00
	1.521545675412637e+00
	1.521545680401405e+00
	1.521545670751052e+00
	1.521545688599011e+00
	1.521545660694168e+00
	1.521545695881616e+00
	1.521545660079430e+00
	1.522044959370584e+00
	3.299500730275942e+00
	1.522044929793128e+00
	3.299500730300477e+00
	1.522044965603455e+00
	3.299500730277332e+00
	1.522044930409103e+00
	3.299500730294968e+00
	1.522044958318596e+00
	3.299500730284067e+00
	1.522044940468073e+00
	3.299500730289866e+00
	1.522044950119761e+00
	3.299500730286905e+00
	1.522044945130271e+00
	3.299500730287767e+00
	1.522044947126581e+00
	3.299500730290199e+00
	1.522044949438826e+00
	3.299500730282382e+00
	1.522044939789909e+00
	3.299500730297085e+00
	1.520636855670220e+00
	9.088339574259101e-04
	1.520636826082668e+00
	9.088340006149292e-04
	1.520636861902761e+00
	9.088339593583693e-04
	1.520636826700744e+00
	9.088339911456028e-04
	1.520636854615131e+00
	9.088339713519219e-04
	1.520636836761943e+00
	9.088339818830691e-04
	1.520636846414996e+00
	9.088339764878948e-04
	1.520636841425045e+00
	9.088339782790644e-04
	1.520636843420511e+00
	9.088339820575377e-04
	1.520636845735739e+00
	9.088339690103329e-04
	1.520636836081035e+00
	9.088339941435503e-04
	1.705400246851523e-03
	-1.705400246841864e-03
17		1.028000000000000e-10
	1.521545659050638e+00
	1.521545703524860e+00
	0.000000000000000e+00
	3.300000000000000e+00
	1.521545686698343e+00
	1.521545674204710e+00
	1.521545675984499e+00
	1.521545681269059e+00
	1.521545668818002e+00
	1.521545692522243e+00
	1.521545653228186e+00
	1.521545707434873e+00
	1.521545645936534e+00
	1.522044973249470e+00
	3.299500730266582e+00
	1.522044915647387e+00
	3.299500730307803e+00
	1.522044977158666e+00
	3.299500730272783e+00
	1.522044922942064e+00
	3.299500730297305e+00
	1.522044962242344e+00
	3.299500730282916e+00
	1.522044938534741e+00
	3.299500730290293e+00
	1.522044950987471e+00
	3.299500730287596e+00
	1.522044945702545e+00
	3.299500730285117e+00
	1.522044943921174e+00
	3.299500730295496e+00
	1.522044956419448e+00
	3.299500730274434e+00
	1.522044928763278e+00
	3.299500730306665e+00
	1.520636869553038e+00
	9.088339407702784e-04
	1.520636811933756e+00
	9.088340138117335e-04
	1.520636873460013e+00
	9.088339510864341e-04
	1.520636819232623e+00
	9.088339954002699e-04
	1.520636858539413e+00
	9.088339692631149e-04
	1.520636834828400e+00
	9.088339827220610e-04
	1.520636847282474e+00
	9.088339775269043e-04
	1.520636841998323e+00
	9.088339738847880e-04
	1.520636840213027e+00
	9.088339910818555e-04
	1.520636852719549e+00
	9.088339552445195e-04
	1.520636825050477e+00
	9.088340109678260e-04
	1.705400246851538e-03
	-1.705400246846318e-03
18		1.128000000000000e-10
	1.521545637035280e+00
	1.521545727831978e+00
	0.000000000000000e+00
	3.300000000000000e+00
	1.521545703093641e+00
	1.521545664458151e+00
	1.521545680063565e+00
	1.521545680983444e+00
	1.521545666641335e+00
	1.521545697538496e+00
	1.521545643412436e+00
	1.521545723742050e+00
	1.521545623871488e+00
	1.522044997561816e+00
	3.299500730252265e+00
	1.522044893578234e+00
	3.299500730317991e+00
	1.522044993468434e+00
	3.299500730266845e+00
	1.522044913124953e+00
	3.299500730300269e+00
	1.522044967259258e+00
	3.299500730281757e+00
	1.522044936357873e+00
	3.299500730289655e+00
	1.522044950701386e+00
	3.299500730291063e+00
	1.522044949783199e+00
	3.299500730277611e+00
	1.522044934171552e+00
	3.299500730307473e+00
	1.522044972819257e+00
	3.299500730259005e+00
	1.522044906742544e+00
	3.299500730323055e+00
	1.520636893871485e+00
	9.088339151539106e-04
	1.520636789860131e+00
	9.088340322251753e-04
	1.520636889772473e+00
	9.088339402860179e-04
	1.520636809414135e+00
	9.088340008071755e-04
	1.520636863556891e+00
	9.088339670693938e-04
	1.520636832651710e+00
	9.088339818509699e-04
	1.520636846995089e+00
	9.088339832311876e-04
	1.520636846081903e+00
	9.088339611576852e-04
	1.520636830458629e+00
	9.088340117354489e-04
	1.520636869125636e+00
	9.088339282816072e-04
	1.520636803022930e+00
	9.088340399597141e-04
	1.705400246851444e-03
	-1.705400246840510e-03
19		1.228000000000000e-10
	1.521545596510253e+00
	1.521545767874231e+00
	0.000000000000000e+00
	3.300000000000000e+00
	1.521545737404832e+00
	1.521545640349997e+00
	1.521545693544298e+00
	1.521545675993927e+00
	1.521545665748699e+00
	1.521545703442233e+00
	1.521545630702195e+00
	1.521545746167212e+00
	1.521545590933784e+00
	1.522045037612085e+00
	3.299500730231237e+00
	1.522044860634781e+00
	3.299500730331835e+00
	1.522045015896997e+00
	3.299500730259243e+00
	1.522044900413003e+00
	3.299500730303569e+00
	1.522044973163615e+00
	3.299500730281876e+00
	1.522044935465705e+00
	3.299500730285229e+00
	1.522044945709766e+00
	3.299500730301600e+00
	1.522044963268305e+00
	3.299500730259783e+00
	1.522044910056560e+00
	3.299500730331836e+00
	1.522045007139149e+00
	3.299500730231250e+00
	1.522044866208335e+00
	3.299500730349530e+00
	1.520636933930832e+00
	9.088338773723409e-04
	1.520636756910529e+00
	9.088340573055458e-04
	1.520636912204515e+00
	9.088339264250606e-04
	1.520636796700605e+00
	9.088340069432588e-04
	1.520636869461364e+00
	9.088339668924150e-04
	1.520636831761170e+00
	9.088339746473717e-04
	1.520636841999383e+00
	9.088340010141359e-04
	1.520636859574084e+00
	9.088339305393227e-04
	1.520636806333783e+00
	9.088340541266379e-04
	1.520636903456969e+00
	9.088338794353948e-04
	1.520636762477574e+00
	9.088340870579024e-04
	1.705400246851441e-03
	-1.705400246842833e-03
20		1.328000000000000e-10