Title: *** SPICE deck for cell tb_nand{lay} from library lab2
Date: Tue Mar 03 17:22:39  2020
Plotname: Transient Analysis
Flags: real
No. Variables: 15
No. Points: 1008    
Command: version 1.06.00
Variables:
	0	time	time
	1	Xmynand@0:net@0	voltage
	2	vdd	voltage
	3	gnd	voltage
	4	nand_out	voltage
	5	M:Xmynand@0:Mpmos@1#drain	voltage
	6	M:Xmynand@0:Mpmos@1#source	voltage
	7	M:Xmynand@0:Mpmos@0#drain	voltage
	8	M:Xmynand@0:Mpmos@0#source	voltage
	9	M:Xmynand@0:Mnmos@1#drain	voltage
	10	M:Xmynand@0:Mnmos@1#source	voltage
	11	M:Xmynand@0:Mnmos@0#drain	voltage
	12	M:Xmynand@0:Mnmos@0#source	voltage
	13	vgnd#branch	current
	14	vsupply#branch	current
Values:
0		0.000000000000000e+00
	6.627654955319143e-09
	3.300000000000000e+00
	0.000000000000000e+00
	3.299999975421514e+00
	3.299999999973273e+00
	3.299999975448240e+00
	3.299999975421514e+00
	3.300000000000000e+00
	3.299999975372863e+00
	6.656767928419659e-09
	6.598541982218628e-09
	2.911297306127428e-11
	8.299330687231825e-12
	-8.299361316549628e-12
1		1.000000000000000e-13
	6.627655047523059e-09
	3.300000000000000e+00
	0.000000000000000e+00
	3.299999975421516e+00
	3.299999999973274e+00
	3.299999975448241e+00
	3.299999975421516e+00
	3.300000000000000e+00
	3.299999975372864e+00
	6.656768031130714e-09
	6.598542063915404e-09
	2.911298059686358e-11
	8.299364783425628e-12
	-8.299066302295729e-12
2		2.000000000000000e-13
	6.627654959626220e-09
	3.300000000000000e+00
	0.000000000000000e+00
	3.299999975421517e+00
	3.299999999973274e+00
	3.299999975448244e+00
	3.299999975421517e+00
	3.300000000000001e+00
	3.299999975372866e+00
	6.656767935577823e-09
	6.598541983674618e-09
	2.911298107306163e-11
	8.299355850932361e-12
	-8.299307488467515e-12
3		4.000000000000000e-13
	6.627655018224112e-09
	3.300000000000000e+00
	0.000000000000000e+00
	3.299999975421525e+00
	3.299999999973273e+00
	3.299999975448251e+00
	3.299999975421525e+00
	3.300000000000001e+00
	3.299999975372873e+00
	6.656767999279750e-09
	6.598542037168475e-09
	2.911298075559626e-11
	8.299437240423381e-12
	-8.299553229455298e-12
4		8.000000000000000e-13
	6.627655032090894e-09
	3.300000000000000e+00
	0.000000000000000e+00
	3.299999975421537e+00
	3.299999999973274e+00
	3.299999975448264e+00
	3.299999975421538e+00
	3.300000000000000e+00
	3.299999975372886e+00
	6.656768011235914e-09
	6.598542052945874e-09
	2.911297838373103e-11
	8.299344280046356e-12
	-8.299738155133635e-12
5		1.600000000000000e-12
	6.627654767697053e-09
	3.300000000000000e+00
	0.000000000000000e+00
	3.299999975421534e+00
	3.299999999973274e+00
	3.299999975448260e+00
	3.299999975421534e+00
	3.300000000000000e+00
	3.299999975372883e+00
	6.656767739061010e-09
	6.598541796333097e-09
	2.911297514064428e-11
	8.299295920908677e-12
	-8.298887857367047e-12
6		3.200000000000000e-12
	6.627655561586959e-09
	3.300000000000000e+00
	0.000000000000000e+00
	3.299999975421525e+00
	3.299999999973274e+00
	3.299999975448251e+00
	3.299999975421525e+00
	3.299999999999999e+00
	3.299999975372873e+00
	6.656768538584125e-09
	6.598542584589793e-09
	2.911297264350811e-11
	8.299340297852011e-12
	-8.299007119211679e-12
7		6.400000000000000e-12
	6.627654832294431e-09
	3.300000000000000e+00
	0.000000000000000e+00
	3.299999975421552e+00
	3.299999999973274e+00
	3.299999975448278e+00
	3.299999975421552e+00
	3.300000000000000e+00
	3.299999975372900e+00
	6.656767801472822e-09
	6.598541863116041e-09
	2.911297852523778e-11
	8.299353205043123e-12
	-8.299156088634951e-12
8		1.280000000000000e-11
	6.627655237092443e-09
	3.300000000000000e+00
	0.000000000000000e+00
	3.299999975421593e+00
	3.299999999973274e+00
	3.299999975448320e+00
	3.299999975421593e+00
	3.300000000000000e+00
	3.299999975372942e+00
	6.656768215148607e-09
	6.598542259036279e-09
	2.911296772826545e-11
	8.299334438890769e-12
	-8.298616618663633e-12
9		2.280000000000000e-11
	6.627655432965748e-09
	3.300000000000000e+00
	0.000000000000000e+00
	3.299999975421634e+00
	3.299999999973274e+00
	3.299999975448360e+00
	3.299999975421633e+00
	3.300000000000000e+00
	3.299999975372982e+00
	6.656768404043629e-09
	6.598542461887868e-09
	2.911298114573424e-11
	8.299342482824260e-12
	-8.298666125293166e-12
10		3.280000000000000e-11
	6.627654838615598e-09
	3.300000000000000e+00
	0.000000000000000e+00
	3.299999975421658e+00
	3.299999999973274e+00
	3.299999975448384e+00
	3.299999975421658e+00
	3.300000000000001e+00
	3.299999975373006e+00
	6.656767814444478e-09
	6.598541862786720e-09
	2.911296588825778e-11
	8.299327667508597e-12
	-8.298779155836529e-12
11		4.280000000000000e-11
	6.627654861029209e-09
	3.300000000000000e+00
	0.000000000000000e+00
	3.299999975421691e+00
	3.299999999973274e+00
	3.299999975448417e+00
	3.299999975421691e+00
	3.300000000000000e+00
	3.299999975373039e+00
	6.656767830159647e-09
	6.598541891898772e-09
	2.911297867498222e-11
	8.299345970167418e-12
	-8.299040983432300e-12
12		5.279999999999999e-11
	6.627655015377380e-09
	3.300000000000000e+00
	0.000000000000000e+00
	3.299999975421752e+00
	3.299999999973274e+00
	3.299999975448478e+00
	3.299999975421752e+00
	3.300000000000000e+00
	3.299999975373100e+00
	6.656767992353370e-09
	6.598542038401391e-09
	2.911296730614739e-11
	8.299338332736200e-12
	-8.298597776169112e-12
13		6.279999999999999e-11
	6.627655037971339e-09
	3.300000000000000e+00
	0.000000000000000e+00
	3.299999975421612e+00
	3.299999999973274e+00
	3.299999975448339e+00
	3.299999975421612e+00
	3.300000000000000e+00
	3.299999975372961e+00
	6.656768008089960e-09
	6.598542067852719e-09
	2.911297877801496e-11
	8.299269787329034e-12
	-8.299457805718322e-12
14		7.280000000000000e-11
	6.627654668994460e-09
	3.300000000000000e+00
	0.000000000000000e+00
	3.299999975421512e+00
	3.299999999973274e+00
	3.299999975448238e+00
	3.299999975421512e+00
	3.300000000000000e+00
	3.299999975372860e+00
	6.656767643823531e-09
	6.598541694165389e-09
	2.911296618630808e-11
	8.299353021695493e-12
	-8.298562103408404e-12
15		8.280000000000000e-11
	6.627654889606873e-09
	3.300000000000000e+00
	0.000000000000000e+00
	3.299999975421580e+00
	3.299999999973274e+00
	3.299999975448306e+00
	3.299999975421580e+00
	3.300000000000000e+00
	3.299999975372929e+00
	6.656767860754249e-09
	6.598541918459497e-09
	2.911297873045019e-11
	8.299334375230340e-12
	-8.299413081317935e-12
16		9.280000000000001e-11
	6.627655061554585e-09
	3.300000000000000e+00
	0.000000000000000e+00
	3.299999975421578e+00
	3.299999999973274e+00
	3.299999975448304e+00
	3.299999975421578e+00
	3.300000000000000e+00
	3.299999975372927e+00
	6.656768036870863e-09
	6.598542086238307e-09
	2.911296650455675e-11
	8.299325754656437e-12
	-8.298689153887330e-12
17		1.028000000000000e-10
	6.627654835594297e-09
	3.300000000000000e+00
	0.000000000000000e+00
	3.299999975421534e+00
	3.299999999973274e+00
	3.299999975448261e+00
	3.299999975421534e+00
	3.300000000000000e+00
	3.299999975372883e+00
	6.656767806351511e-09
	6.598541864837084e-09
	2.911297856216424e-11
	8.299318226981361e-12
	-8.299138540268592e-12
18		1.128000000000000e-10
	6.627654993686395e-09
	3.300000000000000e+00
	0.000000000000000e+00
	3.299999975421562e+00
	3.299999999973274e+00
	3.299999975448288e+00
	3.299999975421563e+00
	3.300000000000000e+00
	3.299999975372911e+00
	6.656767968634510e-09
	6.598542018738282e-09
	2.911296690892107e-11
	8.299353315550971e-12
	-8.298316053718878e-12
19		1.228000000000000e-10
	6.627654998504632e-09
	3.300000000000000e+00
	0.000000000000000e+00
	3.299999975421589e+00
	3.299999999973274e+00
	3.299999975448315e+00
	3.299999975421589e+00
	3.300000000000000e+00
	3.299999975372938e+00
	6.656767970272308e-09
	6.598542026736956e-09
	2.911297892185914e-11
	8.299318307343348e-12
	-8.299113535961538e-12
20		1.328000000000000e-10
	6.627655014248484e-09
	3.300000000000000e+00
	0.000000000000000e+00
	3.299999975421523e+00
	3.299999999973274e+00
	3.299999975448249e+00
	3.299999975421523e+00
	3.300000000000000e+00
	3.299999975372872e+00
	6.656767989322591e-09
	6.598542039174378e-09
	2.911296730936991e-11
	8.299317910177818e-12
	-8.298722145528920e-12
21		1.428000000000000e-10
	6.627655039276242e-09
	3.300000000000000e+00
	0.000000000000000e+00
	3.299999975421562e+00
	3.299999999973274e+00
	3.299999975448288e+00
	3.299999975421562e+00
	3.300000000000000e+00
	3.299999975372911e+00
	6.656768011296463e-09
	6.598542067256021e-09
	2.911297909077981e-11
	8.299358468685867e-12
	-8.298734242247580e-12
22		1.528000000000000e-10
	6.627655075217890e-09
	3.300000000000000e+00
	0.000000000000000e+00
	3.299999975421569e+00
	3.299999999973274e+00
	3.299999975448296e+00
	3.299999975421569e+00
	3.300000000000000e+00
	3.299999975372918e+00
	6.656768050353836e-09
	6.598542100081946e-09
	2.911296756328858e-11
	8.299306093288235e-12
	-8.298711160796202e-12
23		1.628000000000000e-10
	6.627654774448593e-09
	3.300000000000000e+00
	0.000000000000000e+00
	3.299999975421489e+00
	3.299999999973274e+00
	3.299999975448216e+00
	3.299999975421489e+00
	3.300000000000000e+00
	3.299999975372838e+00
	6.656767745144248e-09
	6.598541803752938e-09
	2.911297799225700e-11
	8.299324248193336e-12
	-8.299153924953410e-12
24		1.728000000000000e-10
	6.627655034446127e-09
	3.300000000000000e+00
	0.000000000000000e+00
	3.299999975421469e+00
	3.299999999973274e+00
	3.299999975448195e+00
	3.299999975421469e+00
	3.300000000000000e+00
	3.299999975372817e+00
	6.656768009329526e-09
	6.598542059562729e-09
	2.911296739436727e-11
	8.299328588931396e-12
	-8.298603829740930e-12
25		1.828000000000000e-10
	6.627654774272348e-09
	3.300000000000000e+00
	0.000000000000000e+00
	3.299999975421534e+00
	3.299999999973274e+00
	3.299999975448261e+00
	3.299999975421534e+00
	3.300000000000000e+00
	3.299999975372883e+00
	6.656767744968284e-09
	6.598541803576413e-09
	2.911297767626865e-11
	8.299357109140742e-12
	-8.298969479862825e-12
26		1.927999999999999e-10
	6.627655156937438e-09
	3.300000000000000e+00
	0.000000000000000e+00
	3.299999975421545e+00
	3.299999999973274e+00
	3.299999975448272e+00
	3.299999975421545e+00
	3.300000000000000e+00
	3.299999975372894e+00
	6.656768132578194e-09
	6.598542181296683e-09
	2.911296821711860e-11
	8.299308448880404e-12
	-8.298720092328712e-12
27		2.027999999999999e-10
	6.627654692728989e-09
	3.300000000000000e+00
	0.000000000000000e+00
	3.299999975421458e+00
	3.299999999973274e+00
	3.299999975448184e+00
	3.299999975421458e+00
	3.300000000000000e+00
	3.299999975372807e+00
	6.656767662919833e-09
	6.598541722538145e-09
	2.911297733842675e-11
	8.299319308250635e-12
	-8.299172972189700e-12
28		2.127999999999999e-10
	6.627654926665177e-09
	3.300000000000000e+00
	0.000000000000000e+00
	3.299999975421400e+00
	3.299999999973274e+00
	3.299999975448126e+00
	3.299999975421400e+00
	3.300000000000000e+00
	3.299999975372749e+00
	6.656767902512897e-09
	6.598541950817458e-09
	2.911296751626048e-11
	8.299319956822359e-12
	-8.298643746913546e-12
29		2.227999999999999e-10
	6.627655106027363e-09
	3.300000000000000e+00
	0.000000000000000e+00
	3.299999975421372e+00
	3.299999999973274e+00
	3.299999975448098e+00
	3.299999975421372e+00
	3.300000000000000e+00
	3.299999975372720e+00
	6.656768076831126e-09
	6.598542135223601e-09
	2.911297837311226e-11
	8.299330710629984e-12
	-8.299069191826186e-12
30		2.327999999999999e-10
	6.627654832245348e-09
	3.300000000000000e+00
	0.000000000000000e+00
	3.299999975421334e+00
	3.299999999973274e+00
	3.299999975448060e+00
	3.299999975421334e+00
	3.300000000000000e+00
	3.299999975372683e+00
	6.656767807767061e-09
	6.598541856723636e-09
	2.911296749450497e-11
	8.299315832743124e-12
	-8.298677176940051e-12
31		2.427999999999999e-10
	6.627654956627709e-09
	3.300000000000000e+00
	0.000000000000000e+00
	3.299999975421370e+00
	3.299999999973274e+00
	3.299999975448097e+00
	3.299999975421370e+00
	3.300000000000000e+00
	3.299999975372719e+00
	6.656767926875478e-09
	6.598541986379941e-09
	2.911297812310919e-11
	8.299359460722983e-12
	-8.299088623789159e-12
32		2.527999999999999e-10
	6.627654974946211e-09
	3.300000000000000e+00
	0.000000000000000e+00
	3.299999975421446e+00
	3.299999999973274e+00
	3.299999975448172e+00
	3.299999975421446e+00
	3.300000000000000e+00
	3.299999975372795e+00
	6.656767951351833e-09
	6.598541998540590e-09
	2.911296808572825e-11
	8.299330974573813e-12
	-8.298612316191098e-12
33		2.628000000000000e-10
	6.627655017608916e-09
	3.300000000000000e+00
	0.000000000000000e+00
	3.299999975421398e+00
	3.299999999973274e+00
	3.299999975448124e+00
	3.299999975421397e+00
	3.300000000000000e+00
	3.299999975372746e+00
	6.656767988235783e-09
	6.598542046982049e-09
	2.911297806050199e-11
	8.299311953462113e-12
	-8.298986100044253e-12
34		2.728000000000000e-10
	6.627654812035803e-09
	3.300000000000000e+00
	0.000000000000000e+00
	3.299999975421322e+00
	3.299999999973274e+00
	3.299999975448048e+00
	3.299999975421322e+00
	3.300000000000000e+00
	3.299999975372670e+00
	6.656767787430963e-09
	6.598541836640644e-09
	2.911296772603305e-11
	8.299320554374669e-12
	-8.298679295533496e-12
35		2.828000000000000e-10
	6.627655017608833e-09
	3.300000000000000e+00
	0.000000000000000e+00
	3.299999975421324e+00
	3.299999999973274e+00
	3.299999975448050e+00
	3.299999975421324e+00
	3.300000000000000e+00
	3.299999975372673e+00
	6.656767988235699e-09
	6.598542046981968e-09
	2.911297806050165e-11
	8.299341704011974e-12
	-8.299125716802593e-12
36		2.928000000000000e-10
	6.627654669335037e-09
	3.300000000000000e+00
	0.000000000000000e+00
	3.299999975421305e+00
	3.299999999973274e+00
	3.299999975448031e+00
	3.299999975421305e+00
	3.300000000000000e+00
	3.299999975372654e+00
	6.656767643846287e-09
	6.598541694823788e-09
	2.911296713481017e-11
	8.299311749250521e-12
	-8.298694243913116e-12
37		3.028000000000000e-10
	6.627655052176121e-09
	3.300000000000000e+00
	0.000000000000000e+00
	3.299999975421332e+00
	3.299999999973274e+00
	3.299999975448059e+00
	3.299999975421332e+00
	3.300000000000000e+00
	3.299999975372681e+00
	6.656768024651778e-09
	6.598542079700465e-09
	2.911297814164089e-11
	8.299359928013462e-12
	-8.299106004898283e-12
38		3.128000000000000e-10
	6.627654878599068e-09
	3.300000000000000e+00
	0.000000000000000e+00
	3.299999975421376e+00
	3.299999999973274e+00
	3.299999975448102e+00
	3.299999975421376e+00
	3.300000000000000e+00
	3.299999975372725e+00
	6.656767852460790e-09
	6.598541904737347e-09
	2.911296700890380e-11
	8.299317885953674e-12
	-8.298656266954992e-12
39		3.228000000000001e-10
	6.627655100092775e-09
	3.300000000000000e+00
	0.000000000000000e+00
	3.299999975421420e+00
	3.299999999973274e+00
	3.299999975448146e+00
	3.299999975421420e+00
	3.300000000000000e+00
	3.299999975372768e+00
	6.656768072809634e-09
	6.598542127375917e-09
	2.911297839565745e-11
	8.299360160629043e-12
	-8.299020215124020e-12
40		3.328000000000001e-10
	6.627654545715376e-09
	3.300000000000000e+00
	0.000000000000000e+00
	3.299999975421534e+00
	3.299999999973274e+00
	3.299999975448261e+00
	3.299999975421535e+00
	3.300000000000000e+00
	3.299999975372883e+00
	6.656767517567391e-09
	6.598541573863364e-09
	2.911296631528363e-11
	8.299344855935560e-12
	-8.298558283086263e-12
41		3.428000000000001e-10
	6.627654951552238e-09
	3.300000000000000e+00
	0.000000000000000e+00
	3.299999975421604e+00
	3.299999999973274e+00
	3.299999975448330e+00
	3.299999975421603e+00
	3.300000000000000e+00
	3.299999975372952e+00
	6.656767925298134e-09
	6.598541977806343e-09
	2.911297803210505e-11
	8.299343224507651e-12
	-8.299084543396292e-12
42		3.528000000000001e-10
	6.627654897503887e-09
	3.300000000000000e+00
	0.000000000000000e+00
	3.299999975421633e+00
	3.299999999973274e+00
	3.299999975448359e+00
	3.299999975421633e+00
	3.300000000000000e+00
	3.299999975372981e+00
	6.656767869590563e-09
	6.598541925417213e-09
	2.911296646461162e-11
	8.299328941133215e-12
	-8.298660598598417e-12
43		3.628000000000001e-10
	6.627655040240518e-09
	3.300000000000000e+00
	0.000000000000000e+00
	3.299999975421660e+00
	3.299999999973274e+00
	3.299999975448387e+00
	3.299999975421660e+00
	3.300000000000000e+00
	3.299999975373009e+00
	6.656768014480162e-09
	6.598542066000876e-09
	2.911297845504235e-11
	8.299342648487967e-12
	-8.299059678389110e-12
44		3.728000000000001e-10
	6.627654809426256e-09
	3.300000000000000e+00
	0.000000000000000e+00
	3.299999975421687e+00
	3.299999999973274e+00
	3.299999975448413e+00
	3.299999975421687e+00
	3.300000000000000e+00
	3.299999975373035e+00
	6.656767781018215e-09
	6.598541837834297e-09
	2.911296710050443e-11
	8.299329191467395e-12
	-8.298635588371861e-12
45		3.828000000000002e-10
	6.627654958697309e-09
	3.300000000000000e+00
	0.000000000000000e+00
	3.299999975421746e+00
	3.299999999973274e+00
	3.299999975448472e+00
	3.299999975421746e+00
	3.300000000000000e+00
	3.299999975373094e+00
	6.656767932431863e-09
	6.598541984962758e-09
	2.911297811720107e-11
	8.299354664887927e-12
	-8.299452918484015e-12
46		3.928000000000002e-10
	6.627654952126913e-09
	3.300000000000000e+00
	0.000000000000000e+00
	3.299999975421593e+00
	3.299999999973274e+00
	3.299999975448319e+00
	3.299999975421593e+00
	3.300000000000000e+00
	3.299999975372942e+00
	6.656767924602781e-09
	6.598541979651046e-09
	2.911296769172686e-11
	8.299248617568934e-12
	-8.298619047146793e-12
47		4.028000000000002e-10
	6.627655081011970e-09
	3.300000000000000e+00
	0.000000000000000e+00
	3.299999975421466e+00
	3.299999999973274e+00
	3.299999975448192e+00
	3.299999975421466e+00
	3.300000000000000e+00
	3.299999975372814e+00
	6.656768055504158e-09
	6.598542106519783e-09
	2.911297862396236e-11
	8.299363836080511e-12
	-8.298996098100928e-12
48		4.128000000000002e-10
	6.627654605567805e-09
	3.300000000000000e+00
	0.000000000000000e+00
	3.299999975421463e+00
	3.299999999973274e+00
	3.299999975448189e+00
	3.299999975421463e+00
	3.300000000000000e+00
	3.299999975372812e+00
	6.656767575897035e-09
	6.598541635238575e-09
	2.911296625589944e-11
	8.299296738058276e-12
	-8.298635540855411e-12
49		4.228000000000002e-10
	6.627654891699607e-09
	3.300000000000000e+00
	0.000000000000000e+00
	3.299999975421477e+00
	3.299999999973274e+00
	3.299999975448204e+00
	3.299999975421477e+00
	3.300000000000000e+00
	3.299999975372826e+00
	6.656767866968285e-09
	6.598541916430930e-09
	2.911297809148840e-11
	8.299370705962171e-12
	-8.298983952304683e-12
50		4.328000000000003e-10
	6.627654916761033e-09
	3.300000000000000e+00
	0.000000000000000e+00
	3.299999975421623e+00
	3.299999999973274e+00
	3.299999975448349e+00
	3.299999975421623e+00
	3.300000000000000e+00
	3.299999975372971e+00
	6.656767887072100e-09
	6.598541946449967e-09
	2.911296655229545e-11
	8.299345766063132e-12
	-8.298294098397492e-12
51		4.428000000000003e-10
	6.627654735758272e-09
	3.300000000000000e+00
	0.000000000000000e+00
	3.299999975421779e+00
	3.299999999973274e+00
	3.299999975448505e+00
	3.299999975421779e+00
	3.300000000000000e+00
	3.299999975373127e+00
	6.656767710005425e-09
	6.598541761511119e-09
	2.911297750090189e-11
	8.299374187554995e-12
	-8.299197083657118e-12
52		4.528000000000003e-10
	6.627654991593760e-09
	3.300000000000000e+00
	0.000000000000000e+00
	3.299999975421772e+00
	3.299999999973274e+00
	3.299999975448498e+00
	3.299999975421772e+00
	3.300000000000000e+00
	3.299999975373121e+00
	6.656767962420574e-09
	6.598542020766948e-09
	2.911296754788326e-11
	8.299284839971857e-12
	-8.298726054398831e-12
53		4.628000000000003e-10
	6.627654674600801e-09
	3.300000000000000e+00
	0.000000000000000e+00
	3.299999975421767e+00
	3.299999999973274e+00
	3.299999975448493e+00
	3.299999975421767e+00
	3.300000000000000e+00
	3.299999975373115e+00
	6.656767648469137e-09
	6.598541700732466e-09
	2.911297724752066e-11
	8.299373648605493e-12
	-8.298758184299230e-12
54		4.728000000000003e-10
	6.627654679778487e-09
	3.300000000000000e+00
	0.000000000000000e+00
	3.299999975421895e+00
	3.299999999973275e+00
	3.299999975448622e+00
	3.299999975421895e+00
	3.300000000000000e+00
	3.299999975373244e+00
	6.656767650307175e-09
	6.598541709249800e-09
	2.911296650918468e-11
	8.299336535094596e-12
	-8.298533592380227e-12
55		4.828000000000002e-10
	6.627654884812894e-09
	3.300000000000000e+00
	0.000000000000000e+00
	3.299999975421735e+00
	3.299999999973274e+00
	3.299999975448460e+00
	3.299999975421735e+00
	3.300000000000000e+00
	3.299999975373084e+00
	6.656767860092508e-09
	6.598541909533280e-09
	2.911297843324662e-11
	8.299264020828328e-12
	-8.299106241537231e-12
56		4.928000000000002e-10
	6.627654896551367e-09
	3.300000000000000e+00
	0.000000000000000e+00
	3.299999975421489e+00
	3.299999999973274e+00
	3.299999975448215e+00
	3.299999975421488e+00
	3.300000000000000e+00
	3.299999975372837e+00
	6.656767866735881e-09
	6.598541926366855e-09
	2.911296678382303e-11
	8.299303861760093e-12
	-8.298750669225389e-12
57		5.028000000000002e-10
	6.627654796739068e-09
	3.300000000000000e+00
	0.000000000000000e+00
	3.299999975421414e+00
	3.299999999973274e+00
	3.299999975448140e+00
	3.299999975421414e+00
	3.300000000000000e+00
	3.299999975372762e+00
	6.656767771365318e-09
	6.598541822112819e-09
	2.911297743829299e-11
	8.299328939806941e-12
	-8.299096765268404e-12
58		5.128000000000001e-10
	6.627655032541287e-09
	3.300000000000000e+00
	0.000000000000000e+00
	3.299999975421359e+00
	3.299999999973274e+00
	3.299999975448085e+00
	3.299999975421359e+00
	3.300000000000000e+00
	3.299999975372708e+00
	6.656768003620364e-09
	6.598542061462211e-09
	2.911296803279092e-11
	8.299311512168882e-12
	-8.298670421569597e-12
59		5.228000000000001e-10
	6.627654776353228e-09
	3.300000000000000e+00
	0.000000000000000e+00
	3.299999975421387e+00
	3.299999999973274e+00
	3.299999975448114e+00
	3.299999975421387e+00
	3.300000000000000e+00
	3.299999975372735e+00
	6.656767750853205e-09
	6.598541801853252e-09
	2.911297735383251e-11
	8.299360047665981e-12
	-8.299079784896529e-12
60		5.328000000000001e-10
	6.627655052927215e-09
	3.300000000000000e+00
	0.000000000000000e+00
	3.299999975421467e+00
	3.299999999973274e+00
	3.299999975448193e+00
	3.299999975421467e+00
	3.300000000000000e+00
	3.299999975372816e+00
	6.656768024132565e-09
	6.598542081721866e-09
	2.911296811725176e-11
	8.299331805074989e-12
	-8.298601780145388e-12
61		5.428000000000000e-10
	6.627654796562809e-09
	3.300000000000000e+00
	0.000000000000000e+00
	3.299999975421438e+00
	3.299999999973274e+00
	3.299999975448165e+00
	3.299999975421438e+00
	3.300000000000000e+00
	3.299999975372787e+00
	6.656767771189339e-09
	6.598541821936279e-09
	2.911297712230458e-11
	8.299318516153116e-12
	-8.299183572950060e-12
62		5.528000000000000e-10
	6.627655052927165e-09
	3.300000000000000e+00
	0.000000000000000e+00
	3.299999975421418e+00
	3.299999999973274e+00
	3.299999975448144e+00
	3.299999975421418e+00
	3.300000000000000e+00
	3.299999975372767e+00
	6.656768024132515e-09
	6.598542081721816e-09
	2.911296811725155e-11
	8.299335327037921e-12
	-8.298621544706305e-12
63		5.628000000000000e-10
	6.627654898491946e-09
	3.300000000000000e+00
	0.000000000000000e+00
	3.299999975421464e+00
	3.299999999973274e+00
	3.299999975448190e+00
	3.299999975421464e+00
	3.300000000000000e+00
	3.299999975372813e+00
	6.656767873749840e-09
	6.598541923234053e-09
	2.911297754460672e-11
	8.299343975675509e-12
	-8.299014280645485e-12
64		5.727999999999999e-10
	6.627655216190207e-09
	3.300000000000000e+00
	0.000000000000000e+00
	3.299999975421577e+00
	3.299999999973274e+00
	3.299999975448303e+00
	3.299999975421577e+00
	3.300000000000000e+00
	3.299999975372925e+00
	6.656768188405460e-09
	6.598542243974955e-09
	2.911296910892405e-11
	8.299360572511183e-12
	-8.298302396376814e-12
65		5.827999999999999e-10
	6.627655163567655e-09
	3.300000000000000e+00
	0.000000000000000e+00
	3.299999975421701e+00
	3.299999999973274e+00
	3.299999975448427e+00
	3.299999975421701e+00
	3.300000000000000e+00
	3.299999975373049e+00
	6.656768138721968e-09
	6.598542188413343e-09
	2.911297879989315e-11
	8.299348314971048e-12
	-8.299478299109592e-12
66		5.927999999999999e-10
	6.627654794853522e-09
	3.300000000000000e+00
	0.000000000000000e+00
	3.299999975421568e+00
	3.299999999973274e+00
	3.299999975448294e+00
	3.299999975421568e+00
	3.300000000000000e+00
	3.299999975372916e+00
	6.656767766151339e-09
	6.598541823555706e-09
	2.911296672572574e-11
	8.299261805835800e-12
	-8.298619483994410e-12
67		6.027999999999998e-10
	6.627655040064013e-09
	3.300000000000000e+00
	0.000000000000000e+00
	3.299999975421466e+00
	3.299999999973274e+00
	3.299999975448192e+00
	3.299999975421466e+00
	3.300000000000000e+00
	3.299999975372814e+00
	6.656768014303935e-09
	6.598542065824092e-09
	2.911297813905293e-11
	8.299360204714363e-12
	-8.298998963848078e-12
68		6.127999999999998e-10
	6.627654727530163e-09
	3.300000000000000e+00
	0.000000000000000e+00
	3.299999975421481e+00
	3.299999999973274e+00
	3.299999975448207e+00
	3.299999975421481e+00
	3.300000000000000e+00
	3.299999975372829e+00
	6.656767698617590e-09
	6.598541756442736e-09
	2.911296613068482e-11
	8.299306682671216e-12
	-8.298618706309946e-12
69		6.227999999999998e-10
	6.627655264308134e-09
	3.300000000000000e+00
	0.000000000000000e+00
	3.299999975421542e+00
	3.299999999973274e+00
	3.299999975448268e+00
	3.299999975421542e+00
	3.300000000000001e+00
	3.299999975372890e+00
	6.656768239937057e-09
	6.598542288679212e-09
	2.911297906811769e-11
	8.299377960257034e-12
	-8.298448656479882e-12
70		6.327999999999997e-10
	6.627655054468414e-09
	3.300000000000000e+00
	0.000000000000000e+00
	3.299999975421595e+00
	3.299999999973274e+00
	3.299999975448321e+00
	3.299999975421595e+00
	3.300000000000000e+00
	3.299999975372943e+00
	6.656768025829958e-09
	6.598542083106871e-09
	2.911296890330625e-11
	8.299303758631934e-12
	-8.299106570206681e-12
71		6.427999999999997e-10
	6.627654721373555e-09
	3.300000000000000e+00
	0.000000000000000e+00
	3.299999975421567e+00
	3.299999999973274e+00
	3.299999975448293e+00
	3.299999975421566e+00
	3.300000000000000e+00
	3.299999975372915e+00
	6.656767695643546e-09
	6.598541747103565e-09
	2.911297712558556e-11
	8.299346984277052e-12
	-8.298693471489311e-12
72		6.527999999999996e-10
	6.627654823007729e-09
	3.300000000000000e+00
	0.000000000000000e+00
	3.299999975421496e+00
	3.299999999973274e+00
	3.299999975448222e+00
	3.299999975421495e+00
	3.300000000000000e+00
	3.299999975372844e+00
	6.656767794419484e-09
	6.598541851595975e-09
	2.911296804837152e-11
	8.299287373453055e-12
	-8.299167890295306e-12
73		6.627999999999996e-10
	6.627655046598410e-09
	3.300000000000000e+00
	0.000000000000000e+00
	3.299999975421453e+00
	3.299999999973274e+00
	3.299999975448179e+00
	3.299999975421453e+00
	3.300000000000000e+00
	3.299999975372801e+00
	6.656768020827957e-09
	6.598542072368863e-09
	2.911297716531872e-11
	8.299357031236503e-12
	-8.298602717240101e-12
74		6.727999999999996e-10
	6.627654708202152e-09
	3.300000000000000e+00
	0.000000000000000e+00
	3.299999975421507e+00
	3.299999999973274e+00
	3.299999975448233e+00
	3.299999975421507e+00
	3.300000000000000e+00
	3.299999975372856e+00
	6.656767679161627e-09
	6.598541737242678e-09
	2.911296794215592e-11
	8.299324979873167e-12
	-8.298994517325352e-12
75		6.827999999999995e-10
	6.627654809451125e-09
	3.300000000000000e+00
	0.000000000000000e+00
	3.299999975421466e+00
	3.299999999973274e+00
	3.299999975448192e+00
	3.299999975421466e+00
	3.300000000000000e+00
	3.299999975372815e+00
	6.656767784215831e-09
	6.598541834686419e-09
	2.911297648969251e-11
	8.299320709755469e-12
	-8.298763629948391e-12
76		6.927999999999995e-10
	6.627654958061391e-09
	3.300000000000000e+00
	0.000000000000000e+00
	3.299999975421458e+00
	3.299999999973274e+00
	3.299999975448184e+00
	3.299999975421458e+00
	3.300000000000000e+00
	3.299999975372806e+00
	6.656767928624163e-09
	6.598541987498621e-09
	2.911296766918121e-11
	8.299337006052207e-12
	-8.299006005453273e-12
77		7.027999999999995e-10
	6.627654796210312e-09
	3.300000000000000e+00
	0.000000000000000e+00
	3.299999975421543e+00
	3.299999999973274e+00
	3.299999975448269e+00
	3.299999975421543e+00
	3.300000000000000e+00
	3.299999975372891e+00
	6.656767770837403e-09
	6.598541821583223e-09
	2.911297649032787e-11
	8.299356750822932e-12
	-8.298561272110415e-12
78		7.127999999999994e-10
	6.627655053456223e-09
	3.300000000000000e+00
	0.000000000000000e+00
	3.299999975421578e+00
	3.299999999973274e+00
	3.299999975448304e+00
	3.299999975421578e+00
	3.300000000000000e+00
	3.299999975372927e+00
	6.656768024660734e-09
	6.598542082251713e-09
	2.911296906521794e-11
	8.299317837648168e-12
	-8.299101801892865e-12
79		7.227999999999994e-10
	6.627654714667039e-09
	3.300000000000000e+00
	0.000000000000000e+00
	3.299999975421550e+00
	3.299999999973274e+00
	3.299999975448276e+00
	3.299999975421549e+00
	3.300000000000000e+00
	3.299999975372899e+00
	6.656767688789038e-09
	6.598541740545040e-09
	2.911297615248631e-11
	8.299332600557089e-12
	-8.298713748807540e-12
80		7.327999999999994e-10
	6.627654863955616e-09
	3.300000000000000e+00
	0.000000000000000e+00
	3.299999975421441e+00
	3.299999999973274e+00
	3.299999975448167e+00
	3.299999975421440e+00
	3.300000000000000e+00
	3.299999975372789e+00
	6.656767835619636e-09
	6.598541892291597e-09
	2.911296853328067e-11
	8.299286970189434e-12
	-8.298971700924653e-12
81		7.427999999999993e-10
	6.627655026036166e-09
	3.300000000000000e+00
	0.000000000000000e+00
	3.299999975421329e+00
	3.299999999973274e+00
	3.299999975448055e+00
	3.299999975421329e+00
	3.300000000000000e+00
	3.299999975372677e+00
	6.656768000139719e-09
	6.598542051932613e-09
	2.911297676486923e-11
	8.299331143770150e-12
	-8.298683996329460e-12
82		7.527999999999993e-10
	6.627654851078982e-09
	3.300000000000000e+00
	0.000000000000000e+00
	3.299999975421289e+00
	3.299999999973274e+00
	3.299999975448015e+00
	3.299999975421289e+00
	3.300000000000000e+00
	3.299999975372637e+00
	6.656767822922085e-09
	6.598541879235879e-09
	2.911296884936638e-11
	8.299314601884775e-12
	-8.299149567889416e-12
83		7.627999999999993e-10
	6.627654855886252e-09
	3.300000000000000e+00
	0.000000000000000e+00
	3.299999975421292e+00
	3.299999999973274e+00
	3.299999975448018e+00
	3.299999975421292e+00
	3.300000000000000e+00
	3.299999975372641e+00
	6.656767828990838e-09
	6.598541882781667e-09
	2.911297611495432e-11
	8.299347242017147e-12
	-8.298730638822818e-12
84		7.727999999999992e-10