Title: *** SPICE deck for cell tb_nand{lay} from library lab2
Date: Tue Mar 03 17:24:41  2020
Plotname: Transient Analysis
Flags: real
No. Variables: 15
No. Points: 1008    
Command: version 1.06.00
Variables:
	0	time	time
	1	Xmynand@0:net@0	voltage
	2	gnd	voltage
	3	nand_out	voltage
	4	vdd	voltage
	5	M:Xmynand@0:Mpmos@1#drain	voltage
	6	M:Xmynand@0:Mpmos@1#source	voltage
	7	M:Xmynand@0:Mpmos@0#drain	voltage
	8	M:Xmynand@0:Mpmos@0#source	voltage
	9	M:Xmynand@0:Mnmos@1#drain	voltage
	10	M:Xmynand@0:Mnmos@1#source	voltage
	11	M:Xmynand@0:Mnmos@0#drain	voltage
	12	M:Xmynand@0:Mnmos@0#source	voltage
	13	vgnd#branch	current
	14	vsupply#branch	current
Values:
0		0.000000000000000e+00
	6.413396228837071e-01
	0.000000000000000e+00
	3.299999994311975e+00
	3.300000000000000e+00
	3.299999999990352e+00
	3.299999994321623e+00
	3.299999994321621e+00
	3.299999999990354e+00
	3.299999994276851e+00
	6.413396228954952e-01
	6.413396228719188e-01
	7.991037945213832e-12
	5.991683093695138e-12
	-5.990955350523133e-12
1		1.000000000000000e-13
	6.413396228837053e-01
	0.000000000000000e+00
	3.299999994272717e+00
	3.300000000000000e+00
	3.299999999993932e+00
	3.299999994281662e+00
	3.299999994281662e+00
	3.299999999993932e+00
	3.299999994240149e+00
	6.413396228954934e-01
	6.413396228719171e-01
	7.991039793578993e-12
	5.038317917575473e-12
	-5.037641178908198e-12
2		2.000000000000000e-13
	6.413396228837035e-01
	0.000000000000000e+00
	3.299999994234008e+00
	3.300000000000000e+00
	3.299999999994208e+00
	3.299999994242918e+00
	3.299999994242918e+00
	3.299999999994208e+00
	3.299999994201571e+00
	6.413396228954916e-01
	6.413396228719155e-01
	7.991041953152835e-12
	4.984345013751812e-12
	-4.983810151409137e-12
3		4.000000000000000e-13
	6.413396228836999e-01
	0.000000000000000e+00
	3.299999994157554e+00
	3.300000000000000e+00
	3.299999999994170e+00
	3.299999994166475e+00
	3.299999994166475e+00
	3.299999999994170e+00
	3.299999994125070e+00
	6.413396228954882e-01
	6.413396228719118e-01
	7.991036554218179e-12
	4.998312517595334e-12
	-4.997423068626213e-12
4		8.000000000000000e-13
	6.413396228836925e-01
	0.000000000000000e+00
	3.299999994010219e+00
	3.300000000000000e+00
	3.299999999993936e+00
	3.299999994019182e+00
	3.299999994019182e+00
	3.299999999993936e+00
	3.299999993977589e+00
	6.413396228954806e-01
	6.413396228719044e-01
	7.991043031448574e-12
	5.055826948333661e-12
	-5.055082497005549e-12
5		1.600000000000000e-12
	6.413396228836847e-01
	0.000000000000000e+00
	3.299999993736533e+00
	3.300000000000000e+00
	3.299999999993640e+00
	3.299999993745555e+00
	3.299999993745555e+00
	3.299999999993640e+00
	3.299999993703683e+00
	6.413396228954729e-01
	6.413396228718965e-01
	7.991025381079633e-12
	5.136360177145859e-12
	-5.136290137579638e-12
6		3.200000000000000e-12
	6.413396228836680e-01
	0.000000000000000e+00
	3.299999993263630e+00
	3.300000000000000e+00
	3.299999999993003e+00
	3.299999993272770e+00
	3.299999993272770e+00
	3.299999999993003e+00
	3.299999993230352e+00
	6.413396228954562e-01
	6.413396228718798e-01
	7.991048159956452e-12
	5.299231396330148e-12
	-5.298500169939201e-12
7		6.400000000000000e-12
	6.413396228836165e-01
	0.000000000000000e+00
	3.299999992553528e+00
	3.300000000000000e+00
	3.299999999992159e+00
	3.299999992562832e+00
	3.299999992562832e+00
	3.299999999992159e+00
	3.299999992519651e+00
	6.413396228954046e-01
	6.413396228718283e-01
	7.991024957544112e-12
	5.522161353443572e-12
	-5.522251987768873e-12
8		1.280000000000000e-11
	6.413396228835592e-01
	0.000000000000000e+00
	3.299999991740798e+00
	3.300000000000000e+00
	3.299999999991098e+00
	3.299999991750302e+00
	3.299999991750302e+00
	3.299999999991098e+00
	3.299999991706198e+00
	6.413396228953473e-01
	6.413396228717710e-01
	7.991049192459986e-12
	5.796196473826397e-12
	-5.795024100791588e-12
9		2.280000000000000e-11
	6.413396228834782e-01
	0.000000000000000e+00
	3.299999991270838e+00
	3.300000000000000e+00
	3.299999999990553e+00
	3.299999991280449e+00
	3.299999991280449e+00
	3.299999999990553e+00
	3.299999991235846e+00
	6.413396228952664e-01
	6.413396228716901e-01
	7.991026238021272e-12
	5.941065204018484e-12
	-5.940499005797804e-12
10		3.280000000000000e-11
	6.413396228833768e-01
	0.000000000000000e+00
	3.299999991161160e+00
	3.300000000000000e+00
	3.299999999990372e+00
	3.299999991170802e+00
	3.299999991170802e+00
	3.299999999990372e+00
	3.299999991126057e+00
	6.413396228951650e-01
	6.413396228715885e-01
	7.991049156367499e-12
	5.984807856801644e-12
	-5.985034528879909e-12
11		4.280000000000000e-11
	6.413396228832905e-01
	0.000000000000000e+00
	3.299999991135526e+00
	3.300000000000000e+00
	3.299999999990384e+00
	3.299999991145169e+00
	3.299999991145170e+00
	3.299999999990384e+00
	3.299999991100418e+00
	6.413396228950786e-01
	6.413396228715024e-01
	7.991026257811100e-12
	5.985109398135352e-12
	-5.984131618757311e-12
12		5.279999999999999e-11
	6.413396228832192e-01
	0.000000000000000e+00
	3.299999991129960e+00
	3.300000000000000e+00
	3.299999999990334e+00
	3.299999991139609e+00
	3.299999991139609e+00
	3.299999999990334e+00
	3.299999991094829e+00
	6.413396228950075e-01
	6.413396228714310e-01
	7.991049374070757e-12
	5.995291689654218e-12
	-5.993822936800080e-12
13		6.279999999999999e-11
	6.413396228831573e-01
	0.000000000000000e+00
	3.299999991128657e+00
	3.300000000000000e+00
	3.299999999990374e+00
	3.299999991138302e+00
	3.299999991138302e+00
	3.299999999990374e+00
	3.299999991093543e+00
	6.413396228949454e-01
	6.413396228713691e-01
	7.991026297392682e-12
	5.987378280691665e-12
	-5.987134727273231e-12
14		7.280000000000000e-11
	6.413396228831038e-01
	0.000000000000000e+00
	3.299999991128278e+00
	3.300000000000000e+00
	3.299999999990332e+00
	3.299999991137928e+00
	3.299999991137928e+00
	3.299999999990332e+00
	3.299999991093147e+00
	6.413396228948920e-01
	6.413396228713155e-01
	7.991049017826105e-12
	5.995749160634676e-12
	-5.994793145384403e-12
15		8.280000000000000e-11
	6.413396228830575e-01
	0.000000000000000e+00
	3.299999991128400e+00
	3.300000000000000e+00
	3.299999999990374e+00
	3.299999991138045e+00
	3.299999991138045e+00
	3.299999999990374e+00
	3.299999991093284e+00
	6.413396228948456e-01
	6.413396228712693e-01
	7.991026495305079e-12
	5.987673832933335e-12
	-5.987156393740747e-12
16		9.280000000000001e-11
	6.413396228829433e-01
	0.000000000000000e+00
	3.299999991128348e+00
	3.300000000000000e+00
	3.299999999990332e+00
	3.299999991137998e+00
	3.299999991137998e+00
	3.299999999990332e+00
	3.299999991093217e+00
	6.413396228947315e-01
	6.413396228711552e-01
	7.991048978242199e-12
	5.995594767982147e-12
	-5.994777898367836e-12
17		1.028000000000000e-10
	6.413396228827708e-01
	0.000000000000000e+00
	3.299999991128145e+00
	3.300000000000000e+00
	3.299999999990374e+00
	3.299999991137791e+00
	3.299999991137791e+00
	3.299999999990374e+00
	3.299999991093030e+00
	6.413396228945589e-01
	6.413396228709828e-01
	7.991026534885447e-12
	5.987596740189936e-12
	-5.987487780981800e-12
18		1.128000000000000e-10
	6.413396228825943e-01
	0.000000000000000e+00
	3.299999991128235e+00
	3.300000000000000e+00
	3.299999999990332e+00
	3.299999991137884e+00
	3.299999991137884e+00
	3.299999999990332e+00
	3.299999991093103e+00
	6.413396228943825e-01
	6.413396228708061e-01
	7.991048978239433e-12
	5.995715136499089e-12
	-5.994451258640573e-12
19		1.228000000000000e-10
	6.413396228824136e-01
	0.000000000000000e+00
	3.299999991128280e+00
	3.300000000000000e+00
	3.299999999990375e+00
	3.299999991137925e+00
	3.299999991137925e+00
	3.299999999990374e+00
	3.299999991093165e+00
	6.413396228942018e-01
	6.413396228706255e-01
	7.991026752587122e-12
	5.987600988827790e-12
	-5.986980738059849e-12
20		1.328000000000000e-10
	6.413396228822602e-01
	0.000000000000000e+00
	3.299999991128088e+00
	3.300000000000000e+00
	3.299999999990332e+00
	3.299999991137737e+00
	3.299999991137737e+00
	3.299999999990332e+00
	3.299999991092956e+00
	6.413396228940484e-01
	6.413396228704721e-01
	7.991049116776017e-12
	5.995574852424378e-12
	-5.995555943446152e-12
21		1.428000000000000e-10
	6.413396228821308e-01
	0.000000000000000e+00
	3.299999991128204e+00
	3.300000000000000e+00
	3.299999999990374e+00
	3.299999991137849e+00
	3.299999991137849e+00
	3.299999999990374e+00
	3.299999991093088e+00
	6.413396228939189e-01
	6.413396228703426e-01
	7.991026455715100e-12
	5.987803569118513e-12
	-5.986923329554816e-12
22		1.528000000000000e-10
	6.413396228820188e-01
	0.000000000000000e+00
	3.299999991128228e+00
	3.300000000000000e+00
	3.299999999990332e+00
	3.299999991137877e+00
	3.299999991137877e+00
	3.299999999990332e+00
	3.299999991093096e+00
	6.413396228938070e-01
	6.413396228702307e-01
	7.991049057400148e-12
	5.995505543027026e-12
	-5.995951808740974e-12
23		1.628000000000000e-10
	6.413396228819229e-01
	0.000000000000000e+00
	3.299999991128006e+00
	3.300000000000000e+00
	3.299999999990374e+00
	3.299999991137651e+00
	3.299999991137651e+00
	3.299999999990374e+00
	3.299999991092891e+00
	6.413396228937110e-01
	6.413396228701348e-01
	7.991026614044004e-12
	5.987711591107790e-12
	-5.986811196156884e-12
24		1.728000000000000e-10
	6.413396228818397e-01
	0.000000000000000e+00
	3.299999991128021e+00
	3.300000000000000e+00
	3.299999999990332e+00
	3.299999991137670e+00
	3.299999991137670e+00
	3.299999999990332e+00
	3.299999991092889e+00
	6.413396228936278e-01
	6.413396228700515e-01
	7.991049136564005e-12
	5.995606489343186e-12
	-5.995054450919345e-12
25		1.828000000000000e-10
	6.413396228817688e-01
	0.000000000000000e+00
	3.299999991128229e+00
	3.300000000000000e+00
	3.299999999990374e+00
	3.299999991137875e+00
	3.299999991137875e+00
	3.299999999990374e+00
	3.299999991093114e+00
	6.413396228935569e-01
	6.413396228699807e-01
	7.991026455712232e-12
	5.987848893705937e-12
	-5.986841749058808e-12
26		1.927999999999999e-10
	6.413396228817078e-01
	0.000000000000000e+00
	3.299999991128320e+00
	3.300000000000000e+00
	3.299999999990333e+00
	3.299999991137969e+00
	3.299999991137969e+00
	3.299999999990333e+00
	3.299999991093188e+00
	6.413396228934959e-01
	6.413396228699196e-01
	7.991049195936916e-12
	5.995519949403098e-12
	-5.995137065007306e-12
27		2.027999999999999e-10
	6.413396228816178e-01
	0.000000000000000e+00
	3.299999991128166e+00
	3.300000000000000e+00
	3.299999999990374e+00
	3.299999991137812e+00
	3.299999991137812e+00
	3.299999999990373e+00
	3.299999991093051e+00
	6.413396228934060e-01
	6.413396228698297e-01
	7.991026376545762e-12
	5.987735909807517e-12
	-5.987031682538824e-12
28		2.127999999999999e-10
	6.413396228815050e-01
	0.000000000000000e+00
	3.299999991128150e+00
	3.300000000000000e+00
	3.299999999990333e+00
	3.299999991137800e+00
	3.299999991137800e+00
	3.299999999990333e+00
	3.299999991093019e+00
	6.413396228932933e-01
	6.413396228697168e-01
	7.991048978230803e-12
	5.995551481131002e-12
	-5.994751216406481e-12
29		2.227999999999999e-10
	6.413396228814116e-01
	0.000000000000000e+00
	3.299999991128407e+00
	3.300000000000000e+00
	3.299999999990373e+00
	3.299999991138053e+00
	3.299999991138053e+00
	3.299999999990373e+00
	3.299999991093292e+00
	6.413396228931997e-01
	6.413396228696234e-01
	7.991026475500721e-12
	5.987917046572443e-12
	-5.987086764985505e-12
30		2.327999999999999e-10
	6.413396228813343e-01
	0.000000000000000e+00
	3.299999991128542e+00
	3.300000000000000e+00
	3.299999999990333e+00
	3.299999991138192e+00
	3.299999991138192e+00
	3.299999999990333e+00
	3.299999991093411e+00
	6.413396228931225e-01
	6.413396228695460e-01
	7.991049136560000e-12
	5.995467737670189e-12
	-5.994717465849302e-12
31		2.427999999999999e-10
	6.413396228812676e-01
	0.000000000000000e+00
	3.299999991128406e+00
	3.300000000000000e+00
	3.299999999990373e+00
	3.299999991138051e+00
	3.299999991138051e+00
	3.299999999990373e+00
	3.299999991093291e+00
	6.413396228930557e-01
	6.413396228694794e-01
	7.991026732786723e-12
	5.987808763124545e-12
	-5.987388920272515e-12
32		2.527999999999999e-10
	6.413396228812097e-01
	0.000000000000000e+00
	3.299999991128131e+00
	3.300000000000000e+00
	3.299999999990332e+00
	3.299999991137781e+00
	3.299999991137780e+00
	3.299999999990333e+00
	3.299999991093000e+00
	6.413396228929980e-01
	6.413396228694215e-01
	7.991049096976375e-12
	5.995371046093168e-12
	-5.995375947250794e-12
33		2.628000000000000e-10
	6.413396228811599e-01
	0.000000000000000e+00
	3.299999991128129e+00
	3.300000000000000e+00
	3.299999999990373e+00
	3.299999991137774e+00
	3.299999991137774e+00
	3.299999999990373e+00
	3.299999991093013e+00
	6.413396228929480e-01
	6.413396228693717e-01
	7.991026554664002e-12
	5.987984086464126e-12
	-5.986803168508006e-12
34		2.728000000000000e-10
	6.413396228810916e-01
	0.000000000000000e+00
	3.299999991128402e+00
	3.300000000000000e+00
	3.299999999990334e+00
	3.299999991138052e+00
	3.299999991138052e+00
	3.299999999990334e+00
	3.299999991093271e+00
	6.413396228928797e-01
	6.413396228693035e-01
	7.991048800105660e-12
	5.995477404698398e-12
	-5.994769205903973e-12
35		2.828000000000000e-10
	6.413396228810087e-01
	0.000000000000000e+00
	3.299999991128399e+00
	3.300000000000000e+00
	3.299999999990373e+00
	3.299999991138044e+00
	3.299999991138044e+00
	3.299999999990373e+00
	3.299999991093283e+00
	6.413396228927968e-01
	6.413396228692205e-01
	7.991026792158628e-12
	5.987860029449571e-12
	-5.987392721650503e-12
36		2.928000000000000e-10
	6.413396228809396e-01
	0.000000000000000e+00
	3.299999991128238e+00
	3.300000000000000e+00
	3.299999999990333e+00
	3.299999991137887e+00
	3.299999991137887e+00
	3.299999999990333e+00
	3.299999991093107e+00
	6.413396228927277e-01
	6.413396228691515e-01
	7.991048938643688e-12
	5.995375469259514e-12
	-5.995272692346337e-12
37		3.028000000000000e-10
	6.413396228808828e-01
	0.000000000000000e+00
	3.299999991128318e+00
	3.300000000000000e+00
	3.299999999990372e+00
	3.299999991137963e+00
	3.299999991137963e+00
	3.299999999990372e+00
	3.299999991093202e+00
	6.413396228926709e-01
	6.413396228690946e-01
	7.991026673409720e-12
	5.988019427696240e-12
	-5.987202908449166e-12
38		3.128000000000000e-10
	6.413396228808345e-01
	0.000000000000000e+00
	3.299999991128340e+00
	3.300000000000000e+00
	3.299999999990334e+00
	3.299999991137990e+00
	3.299999991137989e+00
	3.299999999990334e+00
	3.299999991093209e+00
	6.413396228926226e-01
	6.413396228690463e-01
	7.991049116764723e-12
	5.995320717486555e-12
	-5.994874340586298e-12
39		3.228000000000001e-10
	6.413396228807919e-01
	0.000000000000000e+00
	3.299999991128200e+00
	3.300000000000000e+00
	3.299999999990372e+00
	3.299999991137845e+00
	3.299999991137845e+00
	3.299999999990372e+00
	3.299999991093084e+00
	6.413396228925801e-01
	6.413396228690038e-01
	7.991026673408999e-12
	5.987965156296841e-12
	-5.987320786212787e-12
40		3.328000000000001e-10
	6.413396228807555e-01
	0.000000000000000e+00
	3.299999991128266e+00
	3.300000000000000e+00
	3.299999999990334e+00
	3.299999991137915e+00
	3.299999991137915e+00
	3.299999999990334e+00
	3.299999991093134e+00
	6.413396228925436e-01
	6.413396228689674e-01
	7.991048918850909e-12
	5.995402646735143e-12
	-5.994409069305899e-12
41		3.428000000000001e-10
	6.413396228807238e-01
	0.000000000000000e+00
	3.299999991128254e+00
	3.300000000000000e+00
	3.299999999990373e+00
	3.299999991137899e+00
	3.299999991137899e+00
	3.299999999990373e+00
	3.299999991093138e+00
	6.413396228925119e-01
	6.413396228689356e-01
	7.991026732782414e-12
	5.987954655854387e-12
	-5.986956901493922e-12
42		3.528000000000001e-10
	6.413396228806603e-01
	0.000000000000000e+00
	3.299999991128015e+00
	3.300000000000000e+00
	3.299999999990334e+00
	3.299999991137665e+00
	3.299999991137665e+00
	3.299999999990334e+00
	3.299999991092884e+00
	6.413396228924485e-01
	6.413396228688720e-01
	7.991048899058836e-12
	5.995242019483372e-12
	-5.994711619839658e-12
43		3.628000000000001e-10
	6.413396228805698e-01
	0.000000000000000e+00
	3.299999991128006e+00
	3.300000000000000e+00
	3.299999999990372e+00
	3.299999991137651e+00
	3.299999991137651e+00
	3.299999999990372e+00
	3.299999991092890e+00
	6.413396228923579e-01
	6.413396228687815e-01
	7.991026732781195e-12
	5.988089332465109e-12
	-5.986759783268689e-12
44		3.728000000000001e-10
	6.413396228804953e-01
	0.000000000000000e+00
	3.299999991128184e+00
	3.300000000000000e+00
	3.299999999990334e+00
	3.299999991137834e+00
	3.299999991137833e+00
	3.299999999990334e+00
	3.299999991093053e+00
	6.413396228922835e-01
	6.413396228687070e-01
	7.991048859474891e-12
	5.995320836269691e-12
	-5.994333206705802e-12
45		3.828000000000002e-10
	6.413396228804348e-01
	0.000000000000000e+00
	3.299999991128205e+00
	3.300000000000000e+00
	3.299999999990373e+00
	3.299999991137850e+00
	3.299999991137850e+00
	3.299999999990372e+00
	3.299999991093089e+00
	6.413396228922229e-01
	6.413396228686465e-01
	7.991026891110674e-12
	5.988039930472836e-12
	-5.987234886907540e-12
46		3.928000000000002e-10
	6.413396228803820e-01
	0.000000000000000e+00
	3.299999991128016e+00
	3.300000000000000e+00
	3.299999999990334e+00
	3.299999991137665e+00
	3.299999991137665e+00
	3.299999999990334e+00
	3.299999991092885e+00
	6.413396228921703e-01
	6.413396228685938e-01
	7.991048720934764e-12
	5.995188304359626e-12
	-5.994719706886722e-12
47		4.028000000000002e-10
	6.413396228803367e-01
	0.000000000000000e+00
	3.299999991128037e+00
	3.300000000000000e+00
	3.299999999990371e+00
	3.299999991137682e+00
	3.299999991137682e+00
	3.299999999990371e+00
	3.299999991092921e+00
	6.413396228921249e-01
	6.413396228685485e-01
	7.991026891109897e-12
	5.988179468867386e-12
	-5.987220730975289e-12
48		4.128000000000002e-10
	6.413396228802982e-01
	0.000000000000000e+00
	3.299999991128292e+00
	3.300000000000000e+00
	3.299999999990334e+00
	3.299999991137941e+00
	3.299999991137941e+00
	3.299999999990334e+00
	3.299999991093161e+00
	6.413396228920865e-01
	6.413396228685100e-01
	7.991048523020914e-12
	5.995288681774047e-12
	-5.994706457597361e-12
49		4.228000000000002e-10
	6.413396228802649e-01
	0.000000000000000e+00
	3.299999991128340e+00
	3.300000000000000e+00
	3.299999999990372e+00
	3.299999991137986e+00
	3.299999991137986e+00
	3.299999999990372e+00
	3.299999991093225e+00
	6.413396228920530e-01
	6.413396228684767e-01
	7.991026811944055e-12
	5.988100457104671e-12
	-5.987534681196090e-12
50		4.328000000000003e-10
	6.413396228802358e-01
	0.000000000000000e+00
	3.299999991128249e+00
	3.300000000000000e+00
	3.299999999990334e+00
	3.299999991137899e+00
	3.299999991137899e+00
	3.299999999990334e+00
	3.299999991093118e+00
	6.413396228920241e-01
	6.413396228684476e-01
	7.991048879264155e-12
	5.995190587536936e-12
	-5.995355639000609e-12
51		4.428000000000003e-10
	6.413396228802107e-01
	0.000000000000000e+00
	3.299999991127989e+00
	3.300000000000000e+00
	3.299999999990372e+00
	3.299999991137634e+00
	3.299999991137634e+00
	3.299999999990372e+00
	3.299999991092873e+00
	6.413396228919989e-01
	6.413396228684225e-01
	7.991026752569668e-12
	5.988040771086861e-12
	-5.987334545415983e-12
52		4.528000000000003e-10
	6.413396228801891e-01
	0.000000000000000e+00
	3.299999991127955e+00
	3.300000000000000e+00
	3.299999999990334e+00
	3.299999991137605e+00
	3.299999991137605e+00
	3.299999999990335e+00
	3.299999991092824e+00
	6.413396228919773e-01
	6.413396228684008e-01
	7.991048859472465e-12
	5.995284117563481e-12
	-5.994637892503742e-12
53		4.628000000000003e-10
	6.413396228801206e-01
	0.000000000000000e+00
	3.299999991128280e+00
	3.300000000000000e+00
	3.299999999990372e+00
	3.299999991137925e+00
	3.299999991137925e+00
	3.299999999990372e+00
	3.299999991093164e+00
	6.413396228919087e-01
	6.413396228683325e-01
	7.991026752568956e-12
	5.988232202571114e-12
	-5.987167851767183e-12
54		4.728000000000003e-10
	6.413396228800122e-01
	0.000000000000000e+00
	3.299999991128415e+00
	3.300000000000000e+00
	3.299999999990335e+00
	3.299999991138064e+00
	3.299999991138064e+00
	3.299999999990335e+00
	3.299999991093284e+00
	6.413396228918004e-01
	6.413396228682241e-01
	7.991048918845020e-12
	5.995137614175824e-12
	-5.994326199413988e-12
55		4.828000000000002e-10
	6.413396228799236e-01
	0.000000000000000e+00
	3.299999991128352e+00
	3.300000000000000e+00
	3.299999999990372e+00
	3.299999991137998e+00
	3.299999991137998e+00
	3.299999999990371e+00
	3.299999991093236e+00
	6.413396228917118e-01
	6.413396228681355e-01
	7.991026693193439e-12
	5.988166029763236e-12
	-5.987805529721853e-12
56		4.928000000000002e-10
	6.413396228798526e-01
	0.000000000000000e+00
	3.299999991128167e+00
	3.300000000000000e+00
	3.299999999990335e+00
	3.299999991137816e+00
	3.299999991137816e+00
	3.299999999990335e+00
	3.299999991093036e+00
	6.413396228916407e-01
	6.413396228680645e-01
	7.991048918843757e-12
	5.995055635865499e-12
	-5.995159859405071e-12
57		5.028000000000002e-10
	6.413396228797910e-01
	0.000000000000000e+00
	3.299999991128122e+00
	3.300000000000000e+00
	3.299999999990371e+00
	3.299999991137767e+00
	3.299999991137767e+00
	3.299999999990371e+00
	3.299999991093006e+00
	6.413396228915791e-01
	6.413396228680028e-01
	7.991026614027113e-12
	5.988270188266559e-12
	-5.987654232696814e-12
58		5.128000000000001e-10
	6.413396228797003e-01
	0.000000000000000e+00
	3.299999991128321e+00
	3.300000000000000e+00
	3.299999999990335e+00
	3.299999991137970e+00
	3.299999991137970e+00
	3.299999999990335e+00
	3.299999991093190e+00
	6.413396228914884e-01
	6.413396228679120e-01
	7.991048978216505e-12
	5.995142916919711e-12
	-5.994409754026157e-12
59		5.228000000000001e-10
	6.413396228795868e-01
	0.000000000000000e+00
	3.299999991128340e+00
	3.300000000000000e+00
	3.299999999990371e+00
	3.299999991137985e+00
	3.299999991137985e+00
	3.299999999990371e+00
	3.299999991093224e+00
	6.413396228913749e-01
	6.413396228677987e-01
	7.991026554651540e-12
	5.988190977345222e-12
	-5.988047273560274e-12
60		5.328000000000001e-10
	6.413396228794928e-01
	0.000000000000000e+00
	3.299999991128198e+00
	3.300000000000000e+00
	3.299999999990335e+00
	3.299999991137847e+00
	3.299999991137847e+00
	3.299999999990335e+00
	3.299999991093067e+00
	6.413396228912809e-01
	6.413396228677045e-01
	7.991048681345081e-12
	5.995042721471789e-12
	-5.994891160648927e-12
61		5.428000000000000e-10
	6.413396228794155e-01
	0.000000000000000e+00
	3.299999991128258e+00
	3.300000000000000e+00
	3.299999999990371e+00
	3.299999991137903e+00
	3.299999991137903e+00
	3.299999999990371e+00
	3.299999991093141e+00
	6.413396228912036e-01
	6.413396228676274e-01
	7.991026891102599e-12
	5.988329927343042e-12
	-5.987566665371936e-12
62		5.528000000000000e-10
	6.413396228793491e-01
	0.000000000000000e+00
	3.299999991128236e+00
	3.300000000000000e+00
	3.299999999990336e+00
	3.299999991137885e+00
	3.299999991137885e+00
	3.299999999990336e+00
	3.299999991093105e+00
	6.413396228911372e-01
	6.413396228675609e-01
	7.991048819883174e-12
	5.994979784541528e-12
	-5.995066303769013e-12
63		5.628000000000000e-10
	6.413396228792911e-01
	0.000000000000000e+00
	3.299999991127973e+00
	3.300000000000000e+00
	3.299999999990371e+00
	3.299999991137618e+00
	3.299999991137618e+00
	3.299999999990371e+00
	3.299999991092857e+00
	6.413396228910793e-01
	6.413396228675030e-01
	7.991026970266891e-12
	5.988233146629038e-12
	-5.987587596508975e-12
64		5.727999999999999e-10
	6.413396228792159e-01
	0.000000000000000e+00
	3.299999991127986e+00
	3.300000000000000e+00
	3.299999999990336e+00
	3.299999991137636e+00
	3.299999991137636e+00
	3.299999999990336e+00
	3.299999991092856e+00
	6.413396228910040e-01
	6.413396228674277e-01
	7.991048542803657e-12
	5.995090534575838e-12
	-5.994359688661502e-12
65		5.827999999999999e-10
	6.413396228791266e-01
	0.000000000000000e+00
	3.299999991128197e+00
	3.300000000000000e+00
	3.299999999990371e+00
	3.299999991137842e+00
	3.299999991137842e+00
	3.299999999990370e+00
	3.299999991093080e+00
	6.413396228909147e-01
	6.413396228673385e-01
	7.991027148387455e-12
	5.988354199773595e-12
	-5.987350465294347e-12
66		5.927999999999999e-10
	6.413396228790521e-01
	0.000000000000000e+00
	3.299999991128251e+00
	3.300000000000000e+00
	3.299999999990336e+00
	3.299999991137900e+00
	3.299999991137900e+00
	3.299999999990336e+00
	3.299999991093121e+00
	6.413396228908402e-01
	6.413396228672640e-01
	7.991048404263130e-12
	5.994991644736560e-12
	-5.994792827429410e-12
67		6.027999999999998e-10
	6.413396228789907e-01
	0.000000000000000e+00
	3.299999991128137e+00
	3.300000000000000e+00
	3.299999999990370e+00
	3.299999991137782e+00
	3.299999991137782e+00
	3.299999999990370e+00
	3.299999991093020e+00
	6.413396228907788e-01
	6.413396228672026e-01
	7.991027108803741e-12
	5.988297317977471e-12
	-5.988063492547148e-12
68		6.127999999999998e-10
	6.413396228789375e-01
	0.000000000000000e+00
	3.299999991128166e+00
	3.300000000000000e+00
	3.299999999990336e+00
	3.299999991137816e+00
	3.299999991137816e+00
	3.299999999990336e+00
	3.299999991093036e+00
	6.413396228907257e-01
	6.413396228671494e-01
	7.991048503218814e-12
	5.995046659235317e-12
	-5.993995743909176e-12
69		6.227999999999998e-10
	6.413396228788920e-01
	0.000000000000000e+00
	3.299999991128074e+00
	3.300000000000000e+00
	3.299999999990370e+00
	3.299999991137719e+00
	3.299999991137719e+00
	3.299999999990370e+00
	3.299999991092958e+00
	6.413396228906801e-01
	6.413396228671039e-01
	7.991026891098454e-12
	5.988260582965877e-12
	-5.987698721090666e-12
70		6.327999999999997e-10
	6.413396228788523e-01
	0.000000000000000e+00
	3.299999991128016e+00
	3.300000000000000e+00
	3.299999999990336e+00
	3.299999991137665e+00
	3.299999991137665e+00
	3.299999999990336e+00
	3.299999991092885e+00
	6.413396228906404e-01
	6.413396228670641e-01
	7.991048483426822e-12
	5.995043144008881e-12
	-5.994653828581612e-12
71		6.427999999999997e-10
	6.413396228788187e-01
	0.000000000000000e+00
	3.299999991128189e+00
	3.300000000000000e+00
	3.299999999990370e+00
	3.299999991137834e+00
	3.299999991137834e+00
	3.299999999990370e+00
	3.299999991093072e+00
	6.413396228906069e-01
	6.413396228670306e-01
	7.991027049428423e-12
	5.988409035786628e-12
	-5.987374999921302e-12
72		6.527999999999996e-10
	6.413396228787531e-01
	0.000000000000000e+00
	3.299999991128171e+00
	3.300000000000000e+00
	3.299999999990336e+00
	3.299999991137820e+00
	3.299999991137820e+00
	3.299999999990336e+00
	3.299999991093040e+00
	6.413396228905414e-01
	6.413396228669649e-01
	7.991048483426035e-12
	5.994903107572192e-12
	-5.994929225568423e-12
73		6.627999999999996e-10
	6.413396228786613e-01
	0.000000000000000e+00
	3.299999991128341e+00
	3.300000000000000e+00
	3.299999999990370e+00
	3.299999991137986e+00
	3.299999991137986e+00
	3.299999999990370e+00
	3.299999991093224e+00
	6.413396228904494e-01
	6.413396228668731e-01
	7.991027247340362e-12
	5.988519047181737e-12
	-5.987624137616199e-12
74		6.727999999999996e-10
	6.413396228785847e-01
	0.000000000000000e+00
	3.299999991128408e+00
	3.300000000000000e+00
	3.299999999990336e+00
	3.299999991138057e+00
	3.299999991138057e+00
	3.299999999990336e+00
	3.299999991093278e+00
	6.413396228903729e-01
	6.413396228667965e-01
	7.991048344885470e-12
	5.994832657194991e-12
	-5.994627943890019e-12
75		6.827999999999995e-10
	6.413396228785221e-01
	0.000000000000000e+00
	3.299999991128201e+00
	3.300000000000000e+00
	3.299999999990371e+00
	3.299999991137847e+00
	3.299999991137847e+00
	3.299999999990370e+00
	3.299999991093085e+00
	6.413396228903102e-01
	6.413396228667338e-01
	7.991027247339259e-12
	5.988407041103446e-12
	-5.987869241846080e-12
76		6.927999999999995e-10
	6.413396228784685e-01
	0.000000000000000e+00
	3.299999991128200e+00
	3.300000000000000e+00
	3.299999999990336e+00
	3.299999991137849e+00
	3.299999991137849e+00
	3.299999999990336e+00
	3.299999991093069e+00
	6.413396228902567e-01
	6.413396228666802e-01
	7.991048226136638e-12
	5.994920216327473e-12
	-5.994303802698192e-12
77		7.027999999999995e-10
	6.413396228784217e-01
	0.000000000000000e+00
	3.299999991128060e+00
	3.300000000000000e+00
	3.299999999990369e+00
	3.299999991137705e+00
	3.299999991137705e+00
	3.299999999990369e+00
	3.299999991092944e+00
	6.413396228902098e-01
	6.413396228666335e-01
	7.991027286921100e-12
	5.988362446804007e-12
	-5.987757029885843e-12
78		7.127999999999994e-10
	6.413396228783819e-01
	0.000000000000000e+00
	3.299999991128107e+00
	3.300000000000000e+00
	3.299999999990336e+00
	3.299999991137756e+00
	3.299999991137756e+00
	3.299999999990336e+00
	3.299999991092976e+00
	6.413396228901701e-01
	6.413396228665936e-01
	7.991048206344631e-12
	5.994996985160179e-12
	-5.994291528979028e-12
79		7.227999999999994e-10
	6.413396228783471e-01
	0.000000000000000e+00
	3.299999991128475e+00
	3.300000000000000e+00
	3.299999999990370e+00
	3.299999991138121e+00
	3.299999991138121e+00
	3.299999999990370e+00
	3.299999991093359e+00
	6.413396228901352e-01
	6.413396228665589e-01
	7.991027603581608e-12
	5.988557891014203e-12
	-5.987269589847389e-12
80		7.327999999999994e-10
	6.413396228783174e-01
	0.000000000000000e+00
	3.299999991128591e+00
	3.300000000000000e+00
	3.299999999990337e+00
	3.299999991138240e+00
	3.299999991138240e+00
	3.299999999990337e+00
	3.299999991093460e+00
	6.413396228901056e-01
	6.413396228665291e-01
	7.991048146970164e-12
	5.994842287337562e-12
	-5.993807912129661e-12
81		7.427999999999993e-10
	6.413396228782671e-01
	0.000000000000000e+00
	3.299999991128458e+00
	3.300000000000000e+00
	3.299999999990370e+00
	3.299999991138103e+00
	3.299999991138103e+00
	3.299999999990370e+00
	3.299999991093341e+00
	6.413396228900551e-01
	6.413396228664789e-01
	7.991027366085152e-12
	5.988441391624650e-12
	-5.987657344484104e-12
82		7.527999999999993e-10
	6.413396228781987e-01
	0.000000000000000e+00
	3.299999991128217e+00
	3.300000000000000e+00
	3.299999999990336e+00
	3.299999991137867e+00
	3.299999991137867e+00
	3.299999999990337e+00
	3.299999991093087e+00
	6.413396228899868e-01
	6.413396228664106e-01
	7.991048186551863e-12
	5.994753143194678e-12
	-5.994876987352500e-12
83		7.627999999999993e-10
	6.413396228781416e-01
	0.000000000000000e+00
	3.299999991128162e+00
	3.300000000000000e+00
	3.299999999990369e+00
	3.299999991137808e+00
	3.299999991137808e+00
	3.299999999990369e+00
	3.299999991093045e+00
	6.413396228899296e-01
	6.413396228663535e-01
	7.991027267127564e-12
	5.988568369844082e-12
	-5.987651241294082e-12
84		7.727999999999992e-10