Title: *** SPICE deck for cell tb_nor3{lay} from library lab2
Date: Wed Mar 04 15:11:19  2020
Plotname: Transient Analysis
Flags: real
No. Variables: 20
No. Points: 1008    
Command: version 1.06.00
Variables:
	0	time	time
	1	nor_out	voltage
	2	vdd	voltage
	3	gnd	voltage
	4	Xmynor3@0:net@47	voltage
	5	Xmynor3@0:net@50	voltage
	6	M:Xmynor3@0:Mpmos@2#drain	voltage
	7	M:Xmynor3@0:Mpmos@2#source	voltage
	8	M:Xmynor3@0:Mpmos@1#drain	voltage
	9	M:Xmynor3@0:Mpmos@1#source	voltage
	10	M:Xmynor3@0:Mpmos@0#drain	voltage
	11	M:Xmynor3@0:Mpmos@0#source	voltage
	12	M:Xmynor3@0:Mnmos@9#drain	voltage
	13	M:Xmynor3@0:Mnmos@9#source	voltage
	14	M:Xmynor3@0:Mnmos@7#drain	voltage
	15	M:Xmynor3@0:Mnmos@7#source	voltage
	16	M:Xmynor3@0:Mnmos@0#drain	voltage
	17	M:Xmynor3@0:Mnmos@0#source	voltage
	18	vgnd#branch	current
	19	vsupply#branch	current
Values:
0		0.000000000000000e+00
	2.552895891598197e-08
	3.300000000000000e+00
	0.000000000000000e+00
	7.662503547867098e-01
	7.404799263945089e-01
	2.559056313524952e-08
	7.404799263519630e-01
	7.404799264370547e-01
	7.662503547607300e-01
	7.662503548126895e-01
	3.299999999982261e+00
	2.552895891282094e-08
	3.009875947950192e-18
	2.552895891282094e-08
	3.009875947950192e-18
	2.541681911844677e-08
	1.121397973840508e-10
	1.912973124623673e-11
	-1.912987337957010e-11
1		1.000000000000000e-13
	2.552895886828866e-08
	3.300000000000000e+00
	0.000000000000000e+00
	7.662503547866959e-01
	7.404799263945213e-01
	2.559056308073343e-08
	7.404799263519750e-01
	7.404799264370676e-01
	7.662503547607157e-01
	7.662503548126760e-01
	3.299999999982261e+00
	2.552895887078013e-08
	3.009876130892805e-18
	2.552895887078013e-08
	3.009876130892805e-18
	2.541681907186812e-08
	1.121397888985977e-10
	1.912976587558371e-11
	-1.913033289510871e-11
2		2.000000000000000e-13
	2.552895891048303e-08
	3.300000000000000e+00
	0.000000000000000e+00
	7.662503547866806e-01
	7.404799263945344e-01
	2.559056314186415e-08
	7.404799263519881e-01
	7.404799264370807e-01
	7.662503547607004e-01
	7.662503548126607e-01
	3.299999999982261e+00
	2.552895889849681e-08
	2.515043632294316e-18
	2.552895889849681e-08
	2.515043632294316e-18
	2.541681910854755e-08
	1.121397886697377e-10
	1.912977585024370e-11
	-1.913041873088649e-11
3		4.000000000000000e-13
	2.552895890109000e-08
	3.300000000000000e+00
	0.000000000000000e+00
	7.662503547866478e-01
	7.404799263945611e-01
	2.559056313275487e-08
	7.404799263520148e-01
	7.404799264371074e-01
	7.662503547606676e-01
	7.662503548126280e-01
	3.299999999982261e+00
	2.552895888823166e-08
	1.332037411058233e-18
	2.552895888823166e-08
	1.332037411058233e-18
	2.541681910038222e-08
	1.121397887206850e-10
	1.912977875514319e-11
	-1.912995441749447e-11
4		8.000000000000000e-13
	2.552895879988561e-08
	3.300000000000000e+00
	0.000000000000000e+00
	7.662503547865831e-01
	7.404799263946130e-01
	2.559056301276720e-08
	7.404799263520666e-01
	7.404799264371594e-01
	7.662503547606029e-01
	7.662503548125633e-01
	3.299999999982261e+00
	2.552895880085337e-08
	3.126760158963266e-18
	2.552895880085337e-08
	3.126760158963266e-18
	2.541681900571738e-08
	1.121397951474874e-10
	1.912975807811603e-11
	-1.912985726599179e-11
5		1.600000000000000e-12
	2.552895882036950e-08
	3.300000000000000e+00
	0.000000000000000e+00
	7.662503547864661e-01
	7.404799263947152e-01
	2.559056303727855e-08
	7.404799263521689e-01
	7.404799264372615e-01
	7.662503547604859e-01
	7.662503548124463e-01
	3.299999999982262e+00
	2.552895881870198e-08
	2.396737154714656e-18
	2.552895881870198e-08
	2.396737154714656e-18
	2.541681902414053e-08
	1.121397958949226e-10
	1.912978457224783e-11
	-1.912937916787972e-11
6		3.200000000000000e-12
	2.552895889219754e-08
	3.300000000000000e+00
	0.000000000000000e+00
	7.662503547862313e-01
	7.404799263949267e-01
	2.559056311278217e-08
	7.404799263523802e-01
	7.404799264374731e-01
	7.662503547602511e-01
	7.662503548122115e-01
	3.299999999982261e+00
	2.552895888853795e-08
	3.439265008439514e-18
	2.552895888853795e-08
	3.439265008439514e-18
	2.541681909326194e-08
	1.121397973112137e-10
	1.912976775959674e-11
	-1.912989592626957e-11
7		6.400000000000000e-12
	2.552895888613461e-08
	3.300000000000000e+00
	0.000000000000000e+00
	7.662503547856985e-01
	7.404799263953248e-01
	2.559056310535839e-08
	7.404799263527785e-01
	7.404799264378711e-01
	7.662503547597183e-01
	7.662503548116787e-01
	3.299999999982262e+00
	2.552895888292513e-08
	2.495404762058041e-18
	2.552895888292513e-08
	2.495404762058041e-18
	2.541681908877600e-08
	1.121397965211262e-10
	1.912975815907386e-11
	-1.912954582230030e-11
8		1.280000000000000e-11
	2.552895895543613e-08
	3.300000000000000e+00
	0.000000000000000e+00
	7.662503547847244e-01
	7.404799263961094e-01
	2.559056317517751e-08
	7.404799263535631e-01
	7.404799264386557e-01
	7.662503547587441e-01
	7.662503548107046e-01
	3.299999999982262e+00
	2.552895895195686e-08
	3.521952374457963e-18
	2.552895895195686e-08
	3.521952374457963e-18
	2.541681915767489e-08
	1.121397969265073e-10
	1.912977557325730e-11
	-1.912992618833479e-11
9		2.280000000000000e-11
	2.552895907366037e-08
	3.300000000000000e+00
	0.000000000000000e+00
	7.662503547832211e-01
	7.404799263974458e-01
	2.559056329283024e-08
	7.404799263548996e-01
	7.404799264399921e-01
	7.662503547572410e-01
	7.662503548092013e-01
	3.299999999982261e+00
	2.552895907102254e-08
	2.524181742833767e-18
	2.552895907102254e-08
	2.524181742833767e-18
	2.541681927525660e-08
	1.121397973800006e-10
	1.912977716932215e-11
	-1.912986425898331e-11
10		3.280000000000000e-11
	2.552895911169234e-08
	3.300000000000000e+00
	0.000000000000000e+00
	7.662503547815713e-01
	7.404799263989065e-01
	2.559056333073847e-08
	7.404799263563602e-01
	7.404799264414528e-01
	7.662503547555911e-01
	7.662503548075517e-01
	3.299999999982261e+00
	2.552895910827462e-08
	3.507133380315337e-18
	2.552895910827462e-08
	3.507133380315337e-18
	2.541681931507357e-08
	1.121397983273623e-10
	1.912978281506475e-11
	-1.912981358767908e-11
11		4.280000000000000e-11
	2.552895911045176e-08
	3.300000000000000e+00
	0.000000000000000e+00
	7.662503547800240e-01
	7.404799264004324e-01
	2.559056333002913e-08
	7.404799263578861e-01
	7.404799264429787e-01
	7.662503547540438e-01
	7.662503548060042e-01
	3.299999999982261e+00
	2.552895910783741e-08
	2.515076531342795e-18
	2.552895910783741e-08
	2.515076531342795e-18
	2.541681931125924e-08
	1.121397974197691e-10
	1.912979542312039e-11
	-1.912972145918766e-11
12		5.279999999999999e-11
	2.552895908962880e-08
	3.300000000000000e+00
	0.000000000000000e+00
	7.662503547784412e-01
	7.404799264019211e-01
	2.559056330877189e-08
	7.404799263593748e-01
	7.404799264444674e-01
	7.662503547524609e-01
	7.662503548044214e-01
	3.299999999982261e+00
	2.552895908606999e-08
	3.514452144898814e-18
	2.552895908606999e-08
	3.514452144898814e-18
	2.541681929311571e-08
	1.121397982908876e-10
	1.912977452026300e-11
	-1.912986376567926e-11
13		6.279999999999999e-11
	2.552895898621435e-08
	3.300000000000000e+00
	0.000000000000000e+00
	7.662503547768578e-01
	7.404799264034342e-01
	2.559056320501599e-08
	7.404799263608879e-01
	7.404799264459805e-01
	7.662503547508775e-01
	7.662503548028380e-01
	3.299999999982261e+00
	2.552895898385392e-08
	2.491850536263706e-18
	2.552895898385392e-08
	2.491850536263706e-18
	2.541681918792605e-08
	1.121397969050122e-10
	1.912979900232759e-11
	-1.912978428215228e-11
14		7.280000000000000e-11
	2.552895886135652e-08
	3.300000000000000e+00
	0.000000000000000e+00
	7.662503547753805e-01
	7.404799264048755e-01
	2.559056308087982e-08
	7.404799263623292e-01
	7.404799264474219e-01
	7.662503547494003e-01
	7.662503548013607e-01
	3.299999999982261e+00
	2.552895885781028e-08
	3.537320613337398e-18
	2.552895885781028e-08
	3.537320613337398e-18
	2.541681906412618e-08
	1.121397962385139e-10
	1.912977136451603e-11
	-1.912968692552867e-11
15		8.280000000000000e-11
	2.552895899117240e-08
	3.300000000000000e+00
	0.000000000000000e+00
	7.662503547738791e-01
	7.404799264061313e-01
	2.559056321042255e-08
	7.404799263635850e-01
	7.404799264486776e-01
	7.662503547478989e-01
	7.662503547998594e-01
	3.299999999982261e+00
	2.552895898816131e-08
	2.468159188255303e-18
	2.552895898816131e-08
	2.468159188255303e-18
	2.541681919336899e-08
	1.121397970382255e-10
	1.912976830298823e-11
	-1.912985850961483e-11
16		9.280000000000001e-11
	2.552895899293209e-08
	3.300000000000000e+00
	0.000000000000000e+00
	7.662503547723143e-01
	7.404799264073855e-01
	2.559056321245985e-08
	7.404799263648392e-01
	7.404799264499318e-01
	7.662503547463341e-01
	7.662503547982946e-01
	3.299999999982261e+00
	2.552895898967474e-08
	3.559493411293805e-18
	2.552895898967474e-08
	3.559493411293805e-18
	2.541681919511587e-08
	1.121397970455165e-10
	1.912976614008298e-11
	-1.912983492978592e-11
17		1.028000000000000e-10
	2.552895895936151e-08
	3.300000000000000e+00
	0.000000000000000e+00
	7.662503547707882e-01
	7.404799264087423e-01
	2.559056317849642e-08
	7.404799263661960e-01
	7.404799264512886e-01
	7.662503547448080e-01
	7.662503547967684e-01
	3.299999999982261e+00
	2.552895895633955e-08
	2.481976302200635e-18
	2.552895895633955e-08
	2.481976302200635e-18
	2.541681916178963e-08
	1.121397969064224e-10
	1.912978779992644e-11
	-1.912977615436161e-11
18		1.128000000000000e-10
	2.552895894476590e-08
	3.300000000000000e+00
	0.000000000000000e+00
	7.662503547692310e-01
	7.404799264102188e-01
	2.559056316410018e-08
	7.404799263676723e-01
	7.404799264527651e-01
	7.662503547432508e-01
	7.662503547952112e-01
	3.299999999982261e+00
	2.552895894150937e-08
	3.567091471072922e-18
	2.552895894150937e-08
	3.567091471072922e-18
	2.541681914730025e-08
	1.121397968459480e-10
	1.912978233489633e-11
	-1.912991645596593e-11
19		1.228000000000000e-10
	2.552895899084540e-08
	3.300000000000000e+00
	0.000000000000000e+00
	7.662503547677443e-01
	7.404799264117212e-01
	2.559056321037898e-08
	7.404799263691749e-01
	7.404799264542675e-01
	7.662503547417640e-01
	7.662503547937245e-01
	3.299999999982261e+00
	2.552895898757516e-08
	2.501652225399825e-18
	2.552895898757516e-08
	2.501652225399825e-18
	2.541681919304437e-08
	1.121397970368707e-10
	1.912979716371023e-11
	-1.912958556310096e-11
20		1.328000000000000e-10
	2.552895895968046e-08
	3.300000000000000e+00
	0.000000000000000e+00
	7.662503547663301e-01
	7.404799264132508e-01
	2.559056317879767e-08
	7.404799263707045e-01
	7.404799264557971e-01
	7.662503547403497e-01
	7.662503547923104e-01
	3.299999999982261e+00
	2.552895895667578e-08
	3.543198168067759e-18
	2.552895895667578e-08
	3.543198168067759e-18
	2.541681916210625e-08
	1.121397969077439e-10
	1.912979221552242e-11
	-1.912989146031483e-11
21		1.428000000000000e-10
	2.552895895563471e-08
	3.300000000000000e+00
	0.000000000000000e+00
	7.662503547649024e-01
	7.404799264147811e-01
	2.559056317494400e-08
	7.404799263722348e-01
	7.404799264573274e-01
	7.662503547389222e-01
	7.662503547908827e-01
	3.299999999982261e+00
	2.552895895244047e-08
	2.517499453773250e-18
	2.552895895244047e-08
	2.517499453773250e-18
	2.541681915808995e-08
	1.121397968909811e-10
	1.912979636016051e-11
	-1.912975522194079e-11
22		1.528000000000000e-10
	2.552895895761491e-08
	3.300000000000000e+00
	0.000000000000000e+00
	7.662503547634602e-01
	7.404799264162018e-01
	2.559056317694729e-08
	7.404799263736556e-01
	7.404799264587481e-01
	7.662503547374799e-01
	7.662503547894404e-01
	3.299999999982261e+00
	2.552895895440686e-08
	3.523098492825859e-18
	2.552895895440686e-08
	3.523098492825859e-18
	2.541681916005573e-08
	1.121397968991857e-10
	1.912977416449262e-11
	-1.912987168625127e-11
23		1.628000000000000e-10
	2.552895900261925e-08
	3.300000000000000e+00
	0.000000000000000e+00
	7.662503547618844e-01
	7.404799264176368e-01
	2.559056322217238e-08
	7.404799263750906e-01
	7.404799264601831e-01
	7.662503547359042e-01
	7.662503547878647e-01
	3.299999999982261e+00
	2.552895899937406e-08
	2.495541844373640e-18
	2.552895899937406e-08
	2.495541844373640e-18
	2.541681920473253e-08
	1.121397970856536e-10
	1.912978807372653e-11
	-1.912958440490913e-11
24		1.728000000000000e-10
	2.552895901489984e-08
	3.300000000000000e+00
	0.000000000000000e+00
	7.662503547602763e-01
	7.404799264190575e-01
	2.559056323434857e-08
	7.404799263765111e-01
	7.404799264616039e-01
	7.662503547342960e-01
	7.662503547862565e-01
	3.299999999982261e+00
	2.552895901179435e-08
	3.524672057268988e-18
	2.552895901179435e-08
	3.524672057268988e-18
	2.541681921692373e-08
	1.121397971365362e-10
	1.912976926876792e-11
	-1.912997819464236e-11
25		1.828000000000000e-10
	2.552895903925151e-08
	3.300000000000000e+00
	0.000000000000000e+00
	7.662503547586262e-01
	7.404799264203592e-01
	2.559056325887157e-08
	7.404799263778129e-01
	7.404799264629055e-01
	7.662503547326461e-01
	7.662503547846065e-01
	3.299999999982261e+00
	2.552895903607872e-08
	2.506905370038112e-18
	2.552895903607872e-08
	2.506905370038112e-18
	2.541681924109817e-08
	1.121397972374333e-10
	1.912976612497205e-11
	-1.912996586174339e-11
26		1.927999999999999e-10
	2.552895894744261e-08
	3.300000000000000e+00
	0.000000000000000e+00
	7.662503547569636e-01
	7.404799264216662e-01
	2.559056316636626e-08
	7.404799263791199e-01
	7.404799264642125e-01
	7.662503547309834e-01
	7.662503547829439e-01
	3.299999999982261e+00
	2.552895894456956e-08
	3.487333338722894e-18
	2.552895894456956e-08
	3.487333338722894e-18
	2.541681914995747e-08
	1.121397968570384e-10
	1.912976889213604e-11
	-1.912973885407464e-11
27		2.027999999999999e-10
	2.552895891620570e-08
	3.300000000000000e+00
	0.000000000000000e+00
	7.662503547553998e-01
	7.404799264230828e-01
	2.559056313508086e-08
	7.404799263805365e-01
	7.404799264656291e-01
	7.662503547294196e-01
	7.662503547813800e-01
	3.299999999982261e+00
	2.552895891326310e-08
	2.551042416056949e-18
	2.552895891326310e-08
	2.551042416056949e-18
	2.541681911894791e-08
	1.121397967276135e-10
	1.912979089130553e-11
	-1.912967789102231e-11
28		2.127999999999999e-10
	2.552895884886180e-08
	3.300000000000000e+00
	0.000000000000000e+00
	7.662503547538045e-01
	7.404799264246252e-01
	2.559056306799117e-08
	7.404799263820788e-01
	7.404799264671715e-01
	7.662503547278243e-01
	7.662503547797848e-01
	3.299999999982261e+00
	2.552895884544276e-08
	3.444803675091268e-18
	2.552895884544276e-08
	3.444803675091268e-18
	2.541681905209415e-08
	1.121397964485854e-10
	1.912978611533010e-11
	-1.913003565369144e-11
29		2.227999999999999e-10
	2.552895894062693e-08
	3.300000000000000e+00
	0.000000000000000e+00
	7.662503547522777e-01
	7.404799264261989e-01
	2.559056315991136e-08
	7.404799263836526e-01
	7.404799264687451e-01
	7.662503547262973e-01
	7.662503547782580e-01
	3.299999999982261e+00
	2.552895893740071e-08
	2.595393802972062e-18
	2.552895893740071e-08
	2.595393802972062e-18
	2.541681914319140e-08
	1.121397968287988e-10
	1.912980130990342e-11
	-1.912970049842432e-11
30		2.327999999999999e-10
	2.552895905289804e-08
	3.300000000000000e+00
	0.000000000000000e+00
	7.662503547509331e-01
	7.404799264278074e-01
	2.559056327260144e-08
	7.404799263852611e-01
	7.404799264703535e-01
	7.662503547249528e-01
	7.662503547769133e-01
	3.299999999982261e+00
	2.552895904969905e-08
	3.419074079439781e-18
	2.552895904969905e-08
	3.419074079439781e-18
	2.541681925464537e-08
	1.121397972939754e-10
	1.912980617975061e-11
	-1.912974576044380e-11
31		2.427999999999999e-10
	2.552895903097315e-08
	3.300000000000000e+00
	0.000000000000000e+00
	7.662503547495803e-01
	7.404799264293550e-01
	2.559056325059452e-08
	7.404799263868087e-01
	7.404799264719013e-01
	7.662503547236000e-01
	7.662503547755605e-01
	3.299999999982261e+00
	2.552895902776903e-08
	2.640991089433803e-18
	2.552895902776903e-08
	2.640991089433803e-18
	2.541681923288006e-08
	1.121397972031333e-10
	1.912979143039898e-11
	-1.912980103295012e-11
32		2.527999999999999e-10
	2.552895901790404e-08
	3.300000000000000e+00
	0.000000000000000e+00
	7.662503547481107e-01
	7.404799264307265e-01
	2.559056323743958e-08
	7.404799263881803e-01
	7.404799264732728e-01
	7.662503547221304e-01
	7.662503547740910e-01
	3.299999999982261e+00
	2.552895901473047e-08
	3.367032623966569e-18
	2.552895901473047e-08
	3.367032623966569e-18
	2.541681921990607e-08
	1.121397971489836e-10
	1.912976929579356e-11
	-1.912993563258010e-11
33		2.628000000000000e-10
	2.552895896135923e-08
	3.300000000000000e+00
	0.000000000000000e+00
	7.662503547465060e-01
	7.404799264321077e-01
	2.559056318053289e-08
	7.404799263895615e-01
	7.404799264746540e-01
	7.662503547205258e-01
	7.662503547724864e-01
	3.299999999982261e+00
	2.552895895830927e-08
	2.646802660863371e-18
	2.552895895830927e-08
	2.646802660863371e-18
	2.541681916377280e-08
	1.121397969146996e-10
	1.912978194371600e-11
	-1.912967303250088e-11
34		2.728000000000000e-10
	2.552895904491712e-08
	3.300000000000000e+00
	0.000000000000000e+00
	7.662503547448617e-01
	7.404799264336032e-01
	2.559056326455103e-08
	7.404799263910570e-01
	7.404799264761495e-01
	7.662503547188815e-01
	7.662503547708419e-01
	3.299999999982261e+00
	2.552895904175233e-08
	3.410744730424003e-18
	2.552895904175233e-08
	3.410744730424003e-18
	2.541681924672254e-08
	1.121397972609078e-10
	1.912978416039791e-11
	-1.912984061795626e-11
35		2.828000000000000e-10
	2.552895896990334e-08
	3.300000000000000e+00
	0.000000000000000e+00
	7.662503547433132e-01
	7.404799264351627e-01
	2.559056318915775e-08
	7.404799263926164e-01
	7.404799264777090e-01
	7.662503547173329e-01
	7.662503547692934e-01
	3.299999999982261e+00
	2.552895896681099e-08
	2.622973370460979e-18
	2.552895896681099e-08
	2.622973370460979e-18
	2.541681917225473e-08
	1.121397969501007e-10
	1.912979978838078e-11
	-1.912996115448351e-11
36		2.928000000000000e-10
	2.552895900963129e-08
	3.300000000000000e+00
	0.000000000000000e+00
	7.662503547417611e-01
	7.404799264366869e-01
	2.559056322909005e-08
	7.404799263941406e-01
	7.404799264792332e-01
	7.662503547157808e-01
	7.662503547677413e-01
	3.299999999982261e+00
	2.552895900649750e-08
	3.447293625847004e-18
	2.552895900649750e-08
	3.447293625847004e-18
	2.541681921169353e-08
	1.121397971147068e-10
	1.912977830431321e-11
	-1.912986400945270e-11
37		3.028000000000000e-10
	2.552895897069273e-08
	3.300000000000000e+00
	0.000000000000000e+00
	7.662503547401833e-01
	7.404799264382382e-01
	2.559056318974185e-08
	7.404799263956919e-01
	7.404799264807845e-01
	7.662503547142031e-01
	7.662503547661634e-01
	3.299999999982261e+00
	2.552895896779009e-08
	2.594188804373333e-18
	2.552895896779009e-08
	2.594188804373333e-18
	2.541681917303838e-08
	1.121397969533714e-10
	1.912980179447244e-11
	-1.912977280124934e-11
38		3.128000000000000e-10
	2.552895893516811e-08
	3.300000000000000e+00
	0.000000000000000e+00
	7.662503547387838e-01
	7.404799264398579e-01
	2.559056315443128e-08
	7.404799263973115e-01
	7.404799264824042e-01
	7.662503547128034e-01
	7.662503547647641e-01
	3.299999999982261e+00
	2.552895893194136e-08
	3.464812224224854e-18
	2.552895893194136e-08
	3.464812224224854e-18
	2.541681913777230e-08
	1.121397968061811e-10
	1.912980273366985e-11
	-1.912983490420949e-11
39		3.228000000000001e-10
	2.552895897701534e-08
	3.300000000000000e+00
	0.000000000000000e+00
	7.662503547374658e-01
	7.404799264414436e-01
	2.559056319612989e-08
	7.404799263988973e-01
	7.404799264839897e-01
	7.662503547114855e-01
	7.662503547634462e-01
	3.299999999982261e+00
	2.552895897407616e-08
	2.557289545860908e-18
	2.552895897407616e-08
	2.557289545860908e-18
	2.541681917931497e-08
	1.121397969795681e-10
	1.912980307556345e-11
	-1.912987179062822e-11
40		3.328000000000001e-10
	2.552895906652463e-08
	3.300000000000000e+00
	0.000000000000000e+00
	7.662503547361473e-01
	7.404799264430620e-01
	2.559056328644415e-08
	7.404799264005157e-01
	7.404799264856083e-01
	7.662503547101671e-01
	7.662503547621276e-01
	3.299999999982261e+00
	2.552895906317853e-08
	3.494179661655915e-18
	2.552895906317853e-08
	3.494179661655915e-18
	2.541681926817279e-08
	1.121397973504349e-10
	1.912980790935880e-11
	-1.912968206062802e-11
41		3.428000000000001e-10
	2.552895912375333e-08
	3.300000000000000e+00
	0.000000000000000e+00
	7.662503547348247e-01
	7.404799264446871e-01
	2.559056334281788e-08
	7.404799264021408e-01
	7.404799264872334e-01
	7.662503547088445e-01
	7.662503547608049e-01
	3.299999999982261e+00
	2.552895912036273e-08
	2.581841079323368e-18
	2.552895912036273e-08
	2.581841079323368e-18
	2.541681932704677e-08
	1.121397983773350e-10
	1.912980402865419e-11
	-1.912993600072841e-11
42		3.528000000000001e-10
	2.552895906798675e-08
	3.300000000000000e+00
	0.000000000000000e+00
	7.662503547333811e-01
	7.404799264462107e-01
	2.559056328734295e-08
	7.404799264036644e-01
	7.404799264887570e-01
	7.662503547074009e-01
	7.662503547593614e-01
	3.299999999982261e+00
	2.552895906541916e-08
	3.432692503183631e-18
	2.552895906541916e-08
	3.432692503183631e-18
	2.541681926910329e-08
	1.121397972438224e-10
	1.912978207451642e-11
	-1.912980451772307e-11
43		3.628000000000001e-10
	2.552895910138416e-08
	3.300000000000000e+00
	0.000000000000000e+00
	7.662503547318036e-01
	7.404799264477603e-01
	2.559056332061704e-08
	7.404799264052140e-01
	7.404799264903065e-01
	7.662503547058234e-01
	7.662503547577839e-01
	3.299999999982261e+00
	2.552895909778641e-08
	2.612469014306097e-18
	2.552895909778641e-08
	2.612469014306097e-18
	2.541681930478551e-08
	1.121397983395939e-10
	1.912979762609758e-11
	-1.912971482243967e-11
44		3.728000000000001e-10
	2.552895910134698e-08
	3.300000000000000e+00
	0.000000000000000e+00
	7.662503547301889e-01
	7.404799264493050e-01
	2.559056332075940e-08
	7.404799264067586e-01
	7.404799264918513e-01
	7.662503547042087e-01
	7.662503547561691e-01
	3.299999999982261e+00
	2.552895909884963e-08
	3.405592760870553e-18
	2.552895909884963e-08
	3.405592760870553e-18
	2.541681930222072e-08
	1.121397973820450e-10
	1.912977814519675e-11
	-1.912985921091179e-11
45		3.828000000000002e-10
	2.552895904766982e-08
	3.300000000000000e+00
	0.000000000000000e+00
	7.662503547286723e-01
	7.404799264507416e-01
	2.559056326668918e-08
	7.404799264081953e-01
	7.404799264932879e-01
	7.662503547026921e-01
	7.662503547546525e-01
	3.299999999982261e+00
	2.552895904407093e-08
	2.622599110846245e-18
	2.552895904407093e-08
	2.622599110846245e-18
	2.541681925146211e-08
	1.121397981170375e-10
	1.912978884261407e-11
	-1.912999775782119e-11
46		3.928000000000002e-10
	2.552895876790769e-08
	3.300000000000000e+00
	0.000000000000000e+00
	7.662503547271553e-01
	7.404799264521955e-01
	2.559056298711425e-08
	7.404799264096492e-01
	7.404799264947418e-01
	7.662503547011751e-01
	7.662503547531355e-01
	3.299999999982261e+00
	2.552895876557292e-08
	3.384856996147054e-18
	2.552895876557292e-08
	3.384856996147054e-18
	2.541681896883099e-08
	1.121397952095499e-10
	1.912978067666059e-11
	-1.912991010175638e-11
47		4.028000000000002e-10
	2.552895896830386e-08
	3.300000000000000e+00
	0.000000000000000e+00
	7.662503547256160e-01
	7.404799264537043e-01
	2.559056318756522e-08
	7.404799264111579e-01
	7.404799264962506e-01
	7.662503546996358e-01
	7.662503547515962e-01
	3.299999999982261e+00
	2.552895896377974e-08
	2.635874737272371e-18
	2.552895896377974e-08
	2.635874737272371e-18
	2.541681917350613e-08
	1.121397969553237e-10
	1.912979569292355e-11
	-1.912981629587502e-11
48		4.128000000000002e-10
	2.552895897080449e-08
	3.300000000000000e+00
	0.000000000000000e+00
	7.662503547240477e-01
	7.404799264551699e-01
	2.559056318990447e-08
	7.404799264126236e-01
	7.404799264977162e-01
	7.662503546980675e-01
	7.662503547500279e-01
	3.299999999982261e+00
	2.552895896927695e-08
	3.419142632679871e-18
	2.552895896927695e-08
	3.419142632679871e-18
	2.541681917030734e-08
	1.121397963107434e-10
	1.912977143337054e-11
	-1.912996183919716e-11
49		4.228000000000002e-10
	2.552895891684973e-08
	3.300000000000000e+00
	0.000000000000000e+00
	7.662503547224057e-01
	7.404799264566583e-01
	2.559056313590487e-08
	7.404799264141120e-01
	7.404799264992045e-01
	7.662503546964254e-01
	7.662503547483860e-01
	3.299999999982261e+00
	2.552895891232604e-08
	2.611425095805052e-18
	2.552895891232604e-08
	2.611425095805052e-18
	2.541681912242648e-08
	1.121397967421321e-10
	1.912979329206490e-11
	-1.912990522611562e-11
50		4.328000000000003e-10
	2.552895892678256e-08
	3.300000000000000e+00
	0.000000000000000e+00
	7.662503547207942e-01
	7.404799264582759e-01
	2.559056314642488e-08
	7.404799264157296e-01
	7.404799265008222e-01
	7.662503546948140e-01
	7.662503547467744e-01
	3.299999999982261e+00
	2.552895892460122e-08
	3.368516183997045e-18
	2.552895892460122e-08
	3.368516183997045e-18
	2.541681912660582e-08
	1.121397961283459e-10
	1.912979429390305e-11
	-1.912981182765711e-11
51		4.428000000000003e-10
	2.552895903153169e-08
	3.300000000000000e+00
	0.000000000000000e+00
	7.662503547191434e-01
	7.404799264598998e-01
	2.559056325068072e-08
	7.404799264173535e-01
	7.404799265024461e-01
	7.662503546931632e-01
	7.662503547451236e-01
	3.299999999982261e+00
	2.552895902733989e-08
	2.648439328303801e-18
	2.552895902733989e-08
	2.648439328303801e-18
	2.541681923627377e-08
	1.121397972172976e-10
	1.912979125625099e-11
	-1.912994437876438e-11
52		4.528000000000003e-10
	2.552895899533905e-08
	3.300000000000000e+00
	0.000000000000000e+00
	7.662503547176227e-01
	7.404799264614261e-01
	2.559056321546398e-08
	7.404799264188798e-01
	7.404799265039724e-01
	7.662503546916424e-01
	7.662503547436029e-01
	3.299999999982261e+00
	2.552895899296793e-08
	3.390834747145713e-18
	2.552895899296793e-08
	3.390834747145713e-18
	2.541681919466334e-08
	1.121397964123982e-10
	1.912978929552523e-11
	-1.912984158418263e-11
53		4.628000000000003e-10
	2.552895904648781e-08
	3.300000000000000e+00
	0.000000000000000e+00
	7.662503547163554e-01
	7.404799264629793e-01
	2.559056326570283e-08
	7.404799264204330e-01
	7.404799265055256e-01
	7.662503546903752e-01
	7.662503547423355e-01
	3.299999999982261e+00
	2.552895904229037e-08
	2.643404453353771e-18
	2.552895904229037e-08
	2.643404453353771e-18
	2.541681925112103e-08
	1.121397972792658e-10
	1.912981548569793e-11
	-1.912965579145626e-11
54		4.728000000000003e-10
	2.552895895257253e-08
	3.300000000000000e+00
	0.000000000000000e+00
	7.662503547150903e-01
	7.404799264645299e-01
	2.559056317247420e-08
	7.404799264219836e-01
	7.404799265070762e-01
	7.662503546891100e-01
	7.662503547410705e-01
	3.299999999982261e+00
	2.552895895024897e-08
	3.354714980965303e-18
	2.552895895024897e-08
	3.354714980965303e-18
	2.541681915220808e-08
	1.121397962352023e-10
	1.912978911600057e-11
	-1.912990493416718e-11
55		4.828000000000002e-10
	2.552895903155405e-08
	3.300000000000000e+00
	0.000000000000000e+00
	7.662503547137210e-01
	7.404799264659713e-01
	2.559056325058722e-08
	7.404799264234251e-01
	7.404799265085176e-01
	7.662503546877407e-01
	7.662503547397013e-01
	3.299999999982261e+00
	2.552895902746778e-08
	2.706468593557901e-18
	2.552895902746778e-08
	2.706468593557901e-18
	2.541681923629596e-08
	1.121397972173902e-10
	1.912979038495519e-11
	-1.912976959332381e-11
56		4.928000000000002e-10
	2.552895907117265e-08
	3.300000000000000e+00
	0.000000000000000e+00
	7.662503547122262e-01
	7.404799264674310e-01
	2.559056329181865e-08
	7.404799264248848e-01
	7.404799265099773e-01
	7.662503546862459e-01
	7.662503547382065e-01
	3.299999999982261e+00
	2.552895906860324e-08
	3.317940650454821e-18
	2.552895906860324e-08
	3.317940650454821e-18
	2.541681926994501e-08
	1.121397967266021e-10
	1.912978199436923e-11
	-1.912989695468669e-11
57		5.028000000000002e-10
	2.552895928445238e-08
	3.300000000000000e+00
	0.000000000000000e+00
	7.662503547107009e-01
	7.404799264688094e-01
	2.559056350369768e-08
	7.404799264262631e-01
	7.404799265113559e-01
	7.662503546847207e-01
	7.662503547366811e-01
	3.299999999982261e+00
	2.552895928006039e-08
	2.748783628895500e-18
	2.552895928006039e-08
	2.748783628895500e-18
	2.541681948941958e-08
	1.121398000018762e-10
	1.912977555441744e-11
	-1.912982922902257e-11
58		5.128000000000001e-10
	2.552895926012652e-08
	3.300000000000000e+00
	0.000000000000000e+00
	7.662503547091434e-01
	7.404799264699976e-01
	2.559056348093652e-08
	7.404799264274513e-01
	7.404799265125439e-01
	7.662503546831632e-01
	7.662503547351236e-01
	3.299999999982261e+00
	2.552895925835457e-08
	3.310860114979676e-18
	2.552895925835457e-08
	3.310860114979676e-18
	2.541681945700540e-08
	1.121397980280713e-10
	1.912974957472250e-11
	-1.913021991336096e-11
59		5.228000000000001e-10
	2.552895900551246e-08
	3.300000000000000e+00
	0.000000000000000e+00
	7.662503547075100e-01
	7.404799264711769e-01
	2.559056322278396e-08
	7.404799264286306e-01
	7.404799265137232e-01
	7.662503546815298e-01
	7.662503547334902e-01
	3.299999999982261e+00
	2.552895900193071e-08
	2.709760647836591e-18
	2.552895900193071e-08
	2.709760647836591e-18
	2.541681921245219e-08
	1.121397982698362e-10
	1.912976774210684e-11
	-1.913023544925547e-11
60		5.328000000000001e-10
	2.552895891694375e-08
	3.300000000000000e+00
	0.000000000000000e+00
	7.662503547059080e-01
	7.404799264724514e-01
	2.559056313840896e-08
	7.404799264299051e-01
	7.404799265149977e-01
	7.662503546799277e-01
	7.662503547318881e-01
	3.299999999982261e+00
	2.552895891451521e-08
	3.319324461617839e-18
	2.552895891451521e-08
	3.319324461617839e-18
	2.541681911394309e-08
	1.121397958152057e-10
	1.912976696357437e-11
	-1.912999807374463e-11
61		5.428000000000000e-10
	2.552895907723099e-08
	3.300000000000000e+00
	0.000000000000000e+00
	7.662503547042691e-01
	7.404799264738372e-01
	2.559056329559712e-08
	7.404799264312909e-01
	7.404799265163835e-01
	7.662503546782888e-01
	7.662503547302492e-01
	3.299999999982261e+00
	2.552895907265344e-08
	2.674417239164392e-18
	2.552895907265344e-08
	2.674417239164392e-18
	2.541681928416971e-08
	1.121397986796604e-10
	1.912978278902179e-11
	-1.912996341358656e-11
62		5.528000000000000e-10
	2.552895921173443e-08
	3.300000000000000e+00
	0.000000000000000e+00
	7.662503547027613e-01
	7.404799264752407e-01
	2.559056343267089e-08
	7.404799264326944e-01
	7.404799265177870e-01
	7.662503546767809e-01
	7.662503547287415e-01
	3.299999999982261e+00
	2.552895920964382e-08
	3.405641132873427e-18
	2.552895920964382e-08
	3.405641132873427e-18
	2.541681940902042e-08